{
  "material_id": "mp-1181766",
  "formula_pretty": "FeO2",
  "elements": [
    {
      "@module": "pymatgen.core.periodic_table",
      "@class": "Element",
      "element": "Fe"
    },
    {
      "@module": "pymatgen.core.periodic_table",
      "@class": "Element",
      "element": "O"
    }
  ],
  "nelements": 2,
  "composition": {
    "Fe": 8.0,
    "O": 16.0
  },
  "composition_reduced": {
    "Fe": 1.0,
    "O": 2.0
  },
  "chemsys": "Fe-O",
  "volume": 309.6586766955623,
  "density": 3.768486340255357,
  "density_atomic": 12.902444862315095,
  "symmetry": {
    "crystal_system": {},
    "symbol": "P2/m",
    "number": 10,
    "point_group": "2/m",
    "symprec": 0.1,
    "version": "2.5.0"
  },
  "structure": {
    "@module": "pymatgen.core.structure",
    "@class": "Structure",
    "charge": 0,
    "lattice": {
      "matrix": [
        [
          2.941738,
          0.0,
          0.0
        ],
        [
          0.0,
          10.164853,
          0.0
        ],
        [
          0.0,
          0.051819,
          10.355669
        ]
      ],
      "pbc": [
        true,
        true,
        true
      ],
      "a": 2.941738,
      "b": 10.164853,
      "c": 10.355798648405733,
      "alpha": 89.71329855962544,
      "beta": 90.0,
      "gamma": 90.0,
      "volume": 309.6586766955623
    },
    "properties": {},
    "sites": [
      {
        "species": [
          {
            "element": "Fe",
            "occu": 1
          }
        ],
        "abc": [
          0.0,
          0.836151,
          0.658563999999999
        ],
        "xyz": [
          0.0,
          8.533478128719,
          6.81987079931599
        ],
        "properties": {
          "magmom": 3.965
        },
        "label": "Fe"
      },
      {
        "species": [
          {
            "element": "Fe",
            "occu": 1
          }
        ],
        "abc": [
          0.0,
          0.644771,
          0.17531000000000002
        ],
        "xyz": [
          0.0,
          6.563086822553,
          1.8154523323900003
        ],
        "properties": {
          "magmom": 3.9530000000000003
        },
        "label": "Fe"
      },
      {
        "species": [
          {
            "element": "Fe",
            "occu": 1
          }
        ],
        "abc": [
          0.5,
          0.327804,
          0.137444999999999
        ],
        "xyz": [
          1.470869,
          3.339201735267,
          1.4233349257049899
        ],
        "properties": {
          "magmom": 3.96
        },
        "label": "Fe"
      },
      {
        "species": [
          {
            "element": "Fe",
            "occu": 1
          }
        ],
        "abc": [
          0.5,
          0.157099,
          0.656123
        ],
        "xyz": [
          1.470869,
          1.630887879184,
          6.794592611287
        ],
        "properties": {
          "magmom": 3.977
        },
        "label": "Fe"
      },
      {
        "species": [
          {
            "element": "Fe",
            "occu": 1
          }
        ],
        "abc": [
          0.0,
          0.163849,
          0.341435999999999
        ],
        "xyz": [
          0.0,
          1.683193871281,
          3.53579820068399
        ],
        "properties": {
          "magmom": 3.965
        },
        "label": "Fe"
      },
      {
        "species": [
          {
            "element": "Fe",
            "occu": 1
          }
        ],
        "abc": [
          0.0,
          0.355228999999999,
          0.82469
        ],
        "xyz": [
          0.0,
          3.6535851774469905,
          8.54021666761
        ],
        "properties": {
          "magmom": 3.9530000000000003
        },
        "label": "Fe"
      },
      {
        "species": [
          {
            "element": "Fe",
            "occu": 1
          }
        ],
        "abc": [
          0.5,
          0.672196,
          0.862555
        ],
        "xyz": [
          1.470869,
          6.877470264733001,
          8.932334074295
        ],
        "properties": {
          "magmom": 3.96
        },
        "label": "Fe"
      },
      {
        "species": [
          {
            "element": "Fe",
            "occu": 1
          }
        ],
        "abc": [
          0.5,
          0.842901,
          0.343877
        ],
        "xyz": [
          1.470869,
          8.585784120816001,
          3.561076388713
        ],
        "properties": {
          "magmom": 3.977
        },
        "label": "Fe"
      },
      {
        "species": [
          {
            "element": "O",
            "occu": 1
          }
        ],
        "abc": [
          0.0,
          0.794350999999999,
          0.857821
        ],
        "xyz": [
          0.0,
          8.11891257180199,
          8.883310337249
        ],
        "properties": {
          "magmom": 0.013000000000000001
        },
        "label": "O"
      },
      {
        "species": [
          {
            "element": "O",
            "occu": 1
          }
        ],
        "abc": [
          0.0,
          0.5491779999999991,
          0.848495999999999
        ],
        "xyz": [
          0.0,
          5.626281855057991,
          8.78674372382399
        ],
        "properties": {
          "magmom": 0.0
        },
        "label": "O"
      },
      {
        "species": [
          {
            "element": "O",
            "occu": 1
          }
        ],
        "abc": [
          0.0,
          0.840584999999999,
          0.223762
        ],
        "xyz": [
          0.0,
          8.55601808208299,
          2.317205206778
        ],
        "properties": {
          "magmom": -0.005
        },
        "label": "O"
      },
      {
        "species": [
          {
            "element": "O",
            "occu": 1
          }
        ],
        "abc": [
          0.0,
          0.833766,
          0.464157999999999
        ],
        "xyz": [
          0.0,
          8.499161029800002,
          4.80666661170199
        ],
        "properties": {
          "magmom": 0.016
        },
        "label": "O"
      },
      {
        "species": [
          {
            "element": "O",
            "occu": 1
          }
        ],
        "abc": [
          0.5,
          0.285736,
          0.334003
        ],
        "xyz": [
          1.470869,
          2.9217721382649997,
          3.4588245130070003
        ],
        "properties": {
          "magmom": -0.001
        },
        "label": "O"
      },
      {
        "species": [
          {
            "element": "O",
            "occu": 1
          }
        ],
        "abc": [
          0.5,
          0.041432,
          0.335597
        ],
        "xyz": [
          1.470869,
          0.43854049043899995,
          3.475331449393
        ],
        "properties": {
          "magmom": 0.008
        },
        "label": "O"
      },
      {
        "species": [
          {
            "element": "O",
            "occu": 1
          }
        ],
        "abc": [
          0.5,
          0.357133,
          0.70442
        ],
        "xyz": [
          1.470869,
          3.666706786429,
          7.294740356980001
        ],
        "properties": {
          "magmom": 0.024
        },
        "label": "O"
      },
      {
        "species": [
          {
            "element": "O",
            "occu": 1
          }
        ],
        "abc": [
          0.5,
          0.334497,
          0.945172999999999
        ],
        "xyz": [
          1.470869,
          3.4490907536280004,
          9.787898735736992
        ],
        "properties": {
          "magmom": -0.009000000000000001
        },
        "label": "O"
      },
      {
        "species": [
          {
            "element": "O",
            "occu": 1
          }
        ],
        "abc": [
          0.0,
          0.205649,
          0.142179
        ],
        "xyz": [
          0.0,
          2.097759428198,
          1.4723586627510001
        ],
        "properties": {
          "magmom": 0.013000000000000001
        },
        "label": "O"
      },
      {
        "species": [
          {
            "element": "O",
            "occu": 1
          }
        ],
        "abc": [
          0.0,
          0.450822,
          0.151504
        ],
        "xyz": [
          0.0,
          4.590390144942001,
          1.5689252761760002
        ],
        "properties": {
          "magmom": 0.0
        },
        "label": "O"
      },
      {
        "species": [
          {
            "element": "O",
            "occu": 1
          }
        ],
        "abc": [
          0.0,
          0.159415,
          0.776238
        ],
        "xyz": [
          0.0,
          1.6606539179170001,
          8.038463793222
        ],
        "properties": {
          "magmom": -0.005
        },
        "label": "O"
      },
      {
        "species": [
          {
            "element": "O",
            "occu": 1
          }
        ],
        "abc": [
          0.0,
          0.166234,
          0.535841999999999
        ],
        "xyz": [
          0.0,
          1.7175109702,
          5.549002388297991
        ],
        "properties": {
          "magmom": 0.016
        },
        "label": "O"
      },
      {
        "species": [
          {
            "element": "O",
            "occu": 1
          }
        ],
        "abc": [
          0.5,
          0.714264,
          0.665997
        ],
        "xyz": [
          1.470869,
          7.294899861735001,
          6.896844486993
        ],
        "properties": {
          "magmom": -0.001
        },
        "label": "O"
      },
      {
        "species": [
          {
            "element": "O",
            "occu": 1
          }
        ],
        "abc": [
          0.5,
          0.958568,
          0.664403
        ],
        "xyz": [
          1.470869,
          9.778131509561002,
          6.880337550607
        ],
        "properties": {
          "magmom": 0.008
        },
        "label": "O"
      },
      {
        "species": [
          {
            "element": "O",
            "occu": 1
          }
        ],
        "abc": [
          0.5,
          0.642867,
          0.29558
        ],
        "xyz": [
          1.470869,
          6.549965213571,
          3.0609286430200005
        ],
        "properties": {
          "magmom": 0.024
        },
        "label": "O"
      },
      {
        "species": [
          {
            "element": "O",
            "occu": 1
          }
        ],
        "abc": [
          0.5,
          0.665503,
          0.054827
        ],
        "xyz": [
          1.470869,
          6.767581246372,
          0.567770264263
        ],
        "properties": {
          "magmom": -0.009000000000000001
        },
        "label": "O"
      }
    ]
  },
  "formation_energy_per_atom": -1.242372740833333,
  "energy_above_hull": 0.18020338666666702,
  "band_gap": 0.0,
  "is_gap_direct": false,
  "is_metal": true,
  "ordering": "FM",
  "total_magnetization": 31.9993024,
  "bulk_modulus": null,
  "shear_modulus": null
}