{
  "material_id": "mp-1178247",
  "formula_pretty": "FeO",
  "elements": [
    {
      "@module": "pymatgen.core.periodic_table",
      "@class": "Element",
      "element": "Fe"
    },
    {
      "@module": "pymatgen.core.periodic_table",
      "@class": "Element",
      "element": "O"
    }
  ],
  "nelements": 2,
  "composition": {
    "Fe": 12.0,
    "O": 12.0
  },
  "composition_reduced": {
    "Fe": 1.0,
    "O": 1.0
  },
  "chemsys": "Fe-O",
  "volume": 257.3269414727492,
  "density": 5.563370810704058,
  "density_atomic": 10.721955894697883,
  "symmetry": {
    "crystal_system": {},
    "symbol": "P31c",
    "number": 159,
    "point_group": "3m",
    "symprec": 0.1,
    "version": "2.5.0"
  },
  "structure": {
    "@module": "pymatgen.core.structure",
    "@class": "Structure",
    "charge": 0,
    "lattice": {
      "matrix": [
        [
          2.659577,
          -4.606523,
          0.0
        ],
        [
          2.659577,
          4.606523,
          0.0
        ],
        [
          0.0,
          0.0,
          10.501937999999999
        ]
      ],
      "pbc": [
        true,
        true,
        true
      ],
      "a": 5.31915444111731,
      "b": 5.31915444111731,
      "c": 10.501937999999999,
      "alpha": 90.0,
      "beta": 90.0,
      "gamma": 120.00000548660249,
      "volume": 257.3269414727491
    },
    "properties": {},
    "sites": [
      {
        "species": [
          {
            "element": "Fe",
            "occu": 1
          }
        ],
        "abc": [
          0.316173,
          0.987452999999999,
          0.625827999999999
        ],
        "xyz": [
          3.4670937262019974,
          3.0922667594399957,
          6.572406854663989
        ],
        "properties": {
          "magmom": 3.762
        },
        "label": "Fe"
      },
      {
        "species": [
          {
            "element": "Fe",
            "occu": 1
          }
        ],
        "abc": [
          0.327364,
          0.997497,
          0.875231
        ],
        "xyz": [
          3.523569843797,
          3.086983077559,
          9.191621697677999
        ],
        "properties": {
          "magmom": 3.777
        },
        "label": "Fe"
      },
      {
        "species": [
          {
            "element": "Fe",
            "occu": 1
          }
        ],
        "abc": [
          0.012546999999999002,
          0.328719,
          0.625827999999999
        ],
        "xyz": [
          0.9076232044819973,
          1.4564535899560045,
          6.572406854663989
        ],
        "properties": {
          "magmom": 3.762
        },
        "label": "Fe"
      },
      {
        "species": [
          {
            "element": "Fe",
            "occu": 1
          }
        ],
        "abc": [
          0.002503,
          0.329866999999999,
          0.875231
        ],
        "xyz": [
          0.8839636074899975,
          1.5080097953719955,
          9.191621697677999
        ],
        "properties": {
          "magmom": 3.777
        },
        "label": "Fe"
      },
      {
        "species": [
          {
            "element": "Fe",
            "occu": 1
          }
        ],
        "abc": [
          0.671281,
          0.683827,
          0.625827999999999
        ],
        "xyz": [
          3.604014069316,
          0.05779343755799981,
          6.572406854663989
        ],
        "properties": {
          "magmom": 3.762
        },
        "label": "Fe"
      },
      {
        "species": [
          {
            "element": "Fe",
            "occu": 1
          }
        ],
        "abc": [
          0.670133,
          0.672636,
          0.875231
        ],
        "xyz": [
          3.571197548713,
          0.011530127069000008,
          9.191621697677999
        ],
        "properties": {
          "magmom": 3.777
        },
        "label": "Fe"
      },
      {
        "species": [
          {
            "element": "Fe",
            "occu": 1
          }
        ],
        "abc": [
          0.328719,
          0.012546999999999002,
          0.125828
        ],
        "xyz": [
          0.9076232044819973,
          -1.4564535899560047,
          1.3214378546639998
        ],
        "properties": {
          "magmom": 3.762
        },
        "label": "Fe"
      },
      {
        "species": [
          {
            "element": "Fe",
            "occu": 1
          }
        ],
        "abc": [
          0.329866999999999,
          0.002503,
          0.375231
        ],
        "xyz": [
          0.8839636074899975,
          -1.5080097953719955,
          3.9406526976779994
        ],
        "properties": {
          "magmom": 3.777
        },
        "label": "Fe"
      },
      {
        "species": [
          {
            "element": "Fe",
            "occu": 1
          }
        ],
        "abc": [
          0.683827,
          0.671281,
          0.125828
        ],
        "xyz": [
          3.604014069316,
          -0.05779343755799976,
          1.3214378546639998
        ],
        "properties": {
          "magmom": 3.762
        },
        "label": "Fe"
      },
      {
        "species": [
          {
            "element": "Fe",
            "occu": 1
          }
        ],
        "abc": [
          0.672636,
          0.670133,
          0.375231
        ],
        "xyz": [
          3.571197548713,
          -0.011530127068999951,
          3.9406526976779994
        ],
        "properties": {
          "magmom": 3.777
        },
        "label": "Fe"
      },
      {
        "species": [
          {
            "element": "Fe",
            "occu": 1
          }
        ],
        "abc": [
          0.997497,
          0.327364,
          0.375231
        ],
        "xyz": [
          3.523569843797,
          -3.0869830775589997,
          3.9406526976779994
        ],
        "properties": {
          "magmom": 3.777
        },
        "label": "Fe"
      },
      {
        "species": [
          {
            "element": "Fe",
            "occu": 1
          }
        ],
        "abc": [
          0.987452999999999,
          0.316173,
          0.125828
        ],
        "xyz": [
          3.4670937262019974,
          -3.0922667594399957,
          1.3214378546639998
        ],
        "properties": {
          "magmom": 3.762
        },
        "label": "Fe"
      },
      {
        "species": [
          {
            "element": "O",
            "occu": 1
          }
        ],
        "abc": [
          0.9846800000000001,
          0.666177999999999,
          0.24881099999999903
        ],
        "xyz": [
          4.390583967065998,
          -1.4671867885460053,
          2.6129976957179895
        ],
        "properties": {
          "magmom": 0.158
        },
        "label": "O"
      },
      {
        "species": [
          {
            "element": "O",
            "occu": 1
          }
        ],
        "abc": [
          0.333333,
          0.666667,
          0.010443
        ],
        "xyz": [
          2.659577,
          1.5355107376820003,
          0.10967173853399999
        ],
        "properties": {
          "magmom": 0.152
        },
        "label": "O"
      },
      {
        "species": [
          {
            "element": "O",
            "occu": 1
          }
        ],
        "abc": [
          0.0,
          0.0,
          0.992278999999999
        ],
        "xyz": [
          0.0,
          0.0,
          10.42085253670199
        ],
        "properties": {
          "magmom": 0.153
        },
        "label": "O"
      },
      {
        "species": [
          {
            "element": "O",
            "occu": 1
          }
        ],
        "abc": [
          0.0,
          0.0,
          0.492278999999999
        ],
        "xyz": [
          0.0,
          0.0,
          5.169883536701989
        ],
        "properties": {
          "magmom": 0.153
        },
        "label": "O"
      },
      {
        "species": [
          {
            "element": "O",
            "occu": 1
          }
        ],
        "abc": [
          0.333333,
          0.666667,
          0.491062
        ],
        "xyz": [
          2.659577,
          1.5355107376820003,
          5.157102678156
        ],
        "properties": {
          "magmom": 0.151
        },
        "label": "O"
      },
      {
        "species": [
          {
            "element": "O",
            "occu": 1
          }
        ],
        "abc": [
          0.333822,
          0.318502,
          0.24881099999999903
        ],
        "xyz": [
          1.7349059069480002,
          -0.0705719323600001,
          2.6129976957179895
        ],
        "properties": {
          "magmom": 0.158
        },
        "label": "O"
      },
      {
        "species": [
          {
            "element": "O",
            "occu": 1
          }
        ],
        "abc": [
          0.681497999999999,
          0.015320000000000002,
          0.24881099999999903
        ],
        "xyz": [
          1.8532411259859976,
          -3.0687642790939957,
          2.6129976957179895
        ],
        "properties": {
          "magmom": 0.158
        },
        "label": "O"
      },
      {
        "species": [
          {
            "element": "O",
            "occu": 1
          }
        ],
        "abc": [
          0.318502,
          0.333822,
          0.748811
        ],
        "xyz": [
          1.734905906948,
          0.07057193235999994,
          7.863966695717999
        ],
        "properties": {
          "magmom": 0.158
        },
        "label": "O"
      },
      {
        "species": [
          {
            "element": "O",
            "occu": 1
          }
        ],
        "abc": [
          0.666667,
          0.333333,
          0.510443
        ],
        "xyz": [
          2.659577,
          -1.5355107376820003,
          5.360640738533999
        ],
        "properties": {
          "magmom": 0.152
        },
        "label": "O"
      },
      {
        "species": [
          {
            "element": "O",
            "occu": 1
          }
        ],
        "abc": [
          0.666667,
          0.333333,
          0.991062
        ],
        "xyz": [
          2.659577,
          -1.5355107376820003,
          10.408071678155999
        ],
        "properties": {
          "magmom": 0.151
        },
        "label": "O"
      },
      {
        "species": [
          {
            "element": "O",
            "occu": 1
          }
        ],
        "abc": [
          0.015320000000000002,
          0.681497999999999,
          0.748811
        ],
        "xyz": [
          1.8532411259859976,
          3.0687642790939957,
          7.863966695717999
        ],
        "properties": {
          "magmom": 0.158
        },
        "label": "O"
      },
      {
        "species": [
          {
            "element": "O",
            "occu": 1
          }
        ],
        "abc": [
          0.666177999999999,
          0.9846800000000001,
          0.748811
        ],
        "xyz": [
          4.390583967065997,
          1.4671867885460048,
          7.863966695717999
        ],
        "properties": {
          "magmom": 0.158
        },
        "label": "O"
      }
    ]
  },
  "formation_energy_per_atom": -1.370251641249999,
  "energy_above_hull": 0.11126774625000001,
  "band_gap": 2.0878,
  "is_gap_direct": true,
  "is_metal": false,
  "ordering": "FM",
  "total_magnetization": 48.0001239,
  "bulk_modulus": null,
  "shear_modulus": null
}