{
  "material_id": "mp-1245001",
  "formula_pretty": "FeO",
  "elements": [
    {
      "@module": "pymatgen.core.periodic_table",
      "@class": "Element",
      "element": "Fe"
    },
    {
      "@module": "pymatgen.core.periodic_table",
      "@class": "Element",
      "element": "O"
    }
  ],
  "nelements": 2,
  "composition": {
    "Fe": 40.0,
    "O": 40.0
  },
  "composition_reduced": {
    "Fe": 1.0,
    "O": 1.0
  },
  "chemsys": "Fe-O",
  "volume": 1093.8194631207184,
  "density": 4.3627101889764255,
  "density_atomic": 13.67274328900898,
  "symmetry": {
    "crystal_system": {},
    "symbol": "P1",
    "number": 1,
    "point_group": "1",
    "symprec": 0.1,
    "version": "2.5.0"
  },
  "structure": {
    "@module": "pymatgen.core.structure",
    "@class": "Structure",
    "charge": 0,
    "lattice": {
      "matrix": [
        [
          10.68278041,
          0.09861151,
          -0.70239775
        ],
        [
          0.09878006,
          10.33248504,
          0.0339992
        ],
        [
          -0.70647648,
          0.04532929,
          9.95713891
        ]
      ],
      "pbc": [
        true,
        true,
        true
      ],
      "a": 10.706301140795045,
      "b": 10.333013139819286,
      "c": 9.982273239816724,
      "alpha": 89.59054698822153,
      "beta": 97.81741044815709,
      "gamma": 88.93808094447543,
      "volume": 1093.8194631207184
    },
    "properties": {},
    "sites": [
      {
        "species": [
          {
            "element": "Fe",
            "occu": 1
          }
        ],
        "abc": [
          0.07873525,
          0.91552389,
          0.29894524
        ],
        "xyz": [
          0.7203491101941308,
          9.480952074558413,
          2.9524628985584886
        ],
        "properties": {
          "magmom": 3.697
        },
        "label": "Fe"
      },
      {
        "species": [
          {
            "element": "Fe",
            "occu": 1
          }
        ],
        "abc": [
          0.10689445,
          0.5060044,
          0.63619737
        ],
        "xyz": [
          0.7424546028471309,
          5.267662291381264,
          6.276826910895658
        ],
        "properties": {
          "magmom": 3.79
        },
        "label": "Fe"
      },
      {
        "species": [
          {
            "element": "Fe",
            "occu": 1
          }
        ],
        "abc": [
          0.9291355,
          0.28564674,
          0.6650998300000001
        ],
        "xyz": [
          9.48408933300456,
          3.0732126254973955,
          5.9795804723248684
        ],
        "properties": {
          "magmom": 3.763
        },
        "label": "Fe"
      },
      {
        "species": [
          {
            "element": "Fe",
            "occu": 1
          }
        ],
        "abc": [
          0.80788688,
          0.14722122,
          0.17373311
        ],
        "xyz": [
          8.522282300092641,
          1.6087031968923295,
          1.1674321864728139
        ],
        "properties": {
          "magmom": 3.769
        },
        "label": "Fe"
      },
      {
        "species": [
          {
            "element": "Fe",
            "occu": 1
          }
        ],
        "abc": [
          0.16873918000000002,
          0.77522645,
          0.5607015200000001
        ],
        "xyz": [
          1.4830580855678013,
          8.05207152437679,
          5.4908179804381385
        ],
        "properties": {
          "magmom": 3.607
        },
        "label": "Fe"
      },
      {
        "species": [
          {
            "element": "Fe",
            "occu": 1
          }
        ],
        "abc": [
          0.43794338,
          0.73991387,
          0.6721379
        ],
        "xyz": [
          4.276692079360026,
          7.718802784448899,
          6.410116471885197
        ],
        "properties": {
          "magmom": 3.7
        },
        "label": "Fe"
      },
      {
        "species": [
          {
            "element": "Fe",
            "occu": 1
          }
        ],
        "abc": [
          0.9588529,
          0.43499999,
          0.05917078
        ],
        "xyz": [
          10.244381536930634,
          4.591866990858175,
          -0.06953479200791733
        ],
        "properties": {
          "magmom": 3.779
        },
        "label": "Fe"
      },
      {
        "species": [
          {
            "element": "Fe",
            "occu": 1
          }
        ],
        "abc": [
          0.83936498,
          0.58960373,
          0.46599698
        ],
        "xyz": [
          8.695776950888634,
          6.195966080117663,
          4.070474643256713
        ],
        "properties": {
          "magmom": 3.79
        },
        "label": "Fe"
      },
      {
        "species": [
          {
            "element": "Fe",
            "occu": 1
          }
        ],
        "abc": [
          0.21464329000000001,
          0.34480658000000003,
          0.93297171
        ],
        "xyz": [
          1.6679245785903631,
          3.626166073686217,
          9.150687099496373
        ],
        "properties": {
          "magmom": 4.245
        },
        "label": "Fe"
      },
      {
        "species": [
          {
            "element": "Fe",
            "occu": 1
          }
        ],
        "abc": [
          0.32358966,
          0.23752307,
          0.69220753
        ],
        "xyz": [
          2.99127148460865,
          2.517490508290413,
          6.673193476012271
        ],
        "properties": {
          "magmom": 3.773
        },
        "label": "Fe"
      },
      {
        "species": [
          {
            "element": "Fe",
            "occu": 1
          }
        ],
        "abc": [
          0.31694516,
          0.43113721,
          0.38896494
        ],
        "xyz": [
          3.153648724109737,
          4.503604717892222,
          3.665014691672657
        ],
        "properties": {
          "magmom": 4.333
        },
        "label": "Fe"
      },
      {
        "species": [
          {
            "element": "Fe",
            "occu": 1
          }
        ],
        "abc": [
          0.59618742,
          0.5323761,
          0.57304493
        ],
        "xyz": [
          6.016684669136762,
          5.5855347504477475,
          5.305227628794041
        ],
        "properties": {
          "magmom": 3.761
        },
        "label": "Fe"
      },
      {
        "species": [
          {
            "element": "Fe",
            "occu": 1
          }
        ],
        "abc": [
          0.68339898,
          0.78767281,
          0.87342294
        ],
        "xyz": [
          6.7613548389877,
          8.245600172829935,
          8.243555880258052
        ],
        "properties": {
          "magmom": 3.735
        },
        "label": "Fe"
      },
      {
        "species": [
          {
            "element": "Fe",
            "occu": 1
          }
        ],
        "abc": [
          0.75705753,
          0.886718999999999,
          0.26694178
        ],
        "xyz": [
          7.986481417650793,
          9.248765669732656,
          2.156368615274902
        ],
        "properties": {
          "magmom": 3.737
        },
        "label": "Fe"
      },
      {
        "species": [
          {
            "element": "Fe",
            "occu": 1
          }
        ],
        "abc": [
          0.44864688,
          0.982628,
          0.78187271
        ],
        "xyz": [
          4.337485473500439,
          10.232672590993383,
          7.503495190249226
        ],
        "properties": {
          "magmom": 3.727999999999999
        },
        "label": "Fe"
      },
      {
        "species": [
          {
            "element": "Fe",
            "occu": 1
          }
        ],
        "abc": [
          0.63211692,
          0.42853805,
          0.00456794
        ],
        "xyz": [
          6.791870121924768,
          4.490404056150484,
          -0.38394393836282464
        ],
        "properties": {
          "magmom": 4.306
        },
        "label": "Fe"
      },
      {
        "species": [
          {
            "element": "Fe",
            "occu": 1
          }
        ],
        "abc": [
          0.85348975,
          0.68262757,
          0.12059999
        ],
        "xyz": [
          9.099872517334816,
          7.142869779854283,
          0.6245503642044923
        ],
        "properties": {
          "magmom": 3.784
        },
        "label": "Fe"
      },
      {
        "species": [
          {
            "element": "Fe",
            "occu": 1
          }
        ],
        "abc": [
          0.27698912000000003,
          0.01050223,
          0.99831032
        ],
        "xyz": [
          2.2547685950073997,
          0.1810811477436832,
          9.746115064282286
        ],
        "properties": {
          "magmom": 3.789
        },
        "label": "Fe"
      },
      {
        "species": [
          {
            "element": "Fe",
            "occu": 1
          }
        ],
        "abc": [
          0.85472019,
          0.06484605,
          0.49560235
        ],
        "xyz": [
          8.787062194765511,
          0.7767713927393104,
          4.336632618560026
        ],
        "properties": {
          "magmom": 3.806
        },
        "label": "Fe"
      },
      {
        "species": [
          {
            "element": "Fe",
            "occu": 1
          }
        ],
        "abc": [
          0.32592508000000003,
          0.73314017,
          0.37206637000000004
        ],
        "xyz": [
          3.2913495503287153,
          7.624165307418704,
          3.500713666236751
        ],
        "properties": {
          "magmom": 3.674
        },
        "label": "Fe"
      },
      {
        "species": [
          {
            "element": "Fe",
            "occu": 1
          }
        ],
        "abc": [
          0.50750059,
          0.94483706,
          0.27532663
        ],
        "xyz": [
          5.320336633979803,
          9.825040547849365,
          2.4171219321628525
        ],
        "properties": {
          "magmom": 3.775
        },
        "label": "Fe"
      },
      {
        "species": [
          {
            "element": "Fe",
            "occu": 1
          }
        ],
        "abc": [
          0.38960583,
          0.5059193200000001,
          0.7935268400000001
        ],
        "xyz": [
          3.651440220421826,
          5.301793432801221,
          7.644799568459006
        ],
        "properties": {
          "magmom": 3.762
        },
        "label": "Fe"
      },
      {
        "species": [
          {
            "element": "Fe",
            "occu": 1
          }
        ],
        "abc": [
          0.84906286,
          0.021060910000000002,
          0.8224052900000001
        ],
        "xyz": [
          8.491422491207448,
          0.3386179561012491,
          7.593139924467541
        ],
        "properties": {
          "magmom": 3.784
        },
        "label": "Fe"
      },
      {
        "species": [
          {
            "element": "Fe",
            "occu": 1
          }
        ],
        "abc": [
          0.0968237,
          0.0514115,
          0.71862707
        ],
        "xyz": [
          0.5317316337920933,
          0.5733313407526273,
          7.089208761320418
        ],
        "properties": {
          "magmom": 3.771
        },
        "label": "Fe"
      },
      {
        "species": [
          {
            "element": "Fe",
            "occu": 1
          }
        ],
        "abc": [
          0.08172973,
          0.611366499999999,
          0.33808764
        ],
        "xyz": [
          0.6946406122718719,
          6.340319979973318,
          3.329764788680765
        ],
        "properties": {
          "magmom": 3.715
        },
        "label": "Fe"
      },
      {
        "species": [
          {
            "element": "Fe",
            "occu": 1
          }
        ],
        "abc": [
          0.619385699999999,
          0.0016952999999990002,
          0.02201735
        ],
        "xyz": [
          6.601374144102916,
          0.07959325188089007,
          -0.21576767083832585
        ],
        "properties": {
          "magmom": 3.749
        },
        "label": "Fe"
      },
      {
        "species": [
          {
            "element": "Fe",
            "occu": 1
          }
        ],
        "abc": [
          0.7809801,
          0.5194055200000001,
          0.78783266
        ],
        "xyz": [
          7.837760576843933,
          5.479475287150984,
          7.313659940575609
        ],
        "properties": {
          "magmom": 3.784
        },
        "label": "Fe"
      },
      {
        "species": [
          {
            "element": "Fe",
            "occu": 1
          }
        ],
        "abc": [
          0.3534583,
          0.05730059,
          0.48364536
        ],
        "xyz": [
          3.4398934872090052,
          0.648835846423801,
          4.569403892277661
        ],
        "properties": {
          "magmom": 3.805
        },
        "label": "Fe"
      },
      {
        "species": [
          {
            "element": "Fe",
            "occu": 1
          }
        ],
        "abc": [
          0.18948413,
          0.64613279,
          0.07160242
        ],
        "xyz": [
          2.0374569620929788,
          6.69808838956968,
          0.6018300136132226
        ],
        "properties": {
          "magmom": 3.752
        },
        "label": "Fe"
      },
      {
        "species": [
          {
            "element": "Fe",
            "occu": 1
          }
        ],
        "abc": [
          0.63106273,
          0.21656937,
          0.7235538300000001
        ],
        "xyz": [
          6.251723541978963,
          2.332728005747928,
          6.768632137836172
        ],
        "properties": {
          "magmom": 3.793
        },
        "label": "Fe"
      },
      {
        "species": [
          {
            "element": "Fe",
            "occu": 1
          }
        ],
        "abc": [
          0.03806738,
          0.8548588300000001,
          0.99167067
        ],
        "xyz": [
          -0.20948353641788595,
          8.881521681495373,
          9.87652868843531
        ],
        "properties": {
          "magmom": 3.752
        },
        "label": "Fe"
      },
      {
        "species": [
          {
            "element": "Fe",
            "occu": 1
          }
        ],
        "abc": [
          0.62148636,
          0.30838477000000003,
          0.32747614
        ],
        "xyz": [
          6.438310387102707,
          3.262510991910985,
          2.834679630243101
        ],
        "properties": {
          "magmom": 3.751
        },
        "label": "Fe"
      },
      {
        "species": [
          {
            "element": "Fe",
            "occu": 1
          }
        ],
        "abc": [
          0.66025524,
          0.83202256,
          0.58044297
        ],
        "xyz": [
          6.725479675583657,
          8.688280488059906,
          5.344077588043204
        ],
        "properties": {
          "magmom": 3.701
        },
        "label": "Fe"
      },
      {
        "species": [
          {
            "element": "Fe",
            "occu": 1
          }
        ],
        "abc": [
          0.920130999999999,
          0.76154862,
          0.69334504
        ],
        "xyz": [
          9.414951276525557,
          7.990854069078677,
          6.283326975575361
        ],
        "properties": {
          "magmom": 3.781
        },
        "label": "Fe"
      },
      {
        "species": [
          {
            "element": "Fe",
            "occu": 1
          }
        ],
        "abc": [
          0.43854315,
          0.7399237200000001,
          0.04326937
        ],
        "xyz": [
          4.727381089007297,
          7.690457539683654,
          0.14796422034129816
        ],
        "properties": {
          "magmom": 3.801
        },
        "label": "Fe"
      },
      {
        "species": [
          {
            "element": "Fe",
            "occu": 1
          }
        ],
        "abc": [
          0.8881351200000001,
          0.36590045,
          0.33539692
        ],
        "xyz": [
          9.286946094329583,
          3.883444575273286,
          2.728209935021817
        ],
        "properties": {
          "magmom": 3.738
        },
        "label": "Fe"
      },
      {
        "species": [
          {
            "element": "Fe",
            "occu": 1
          }
        ],
        "abc": [
          0.13831338,
          0.22698847,
          0.43419184
        ],
        "xyz": [
          1.1932470782228708,
          2.3786758696134864,
          4.233874883950823
        ],
        "properties": {
          "magmom": 3.76
        },
        "label": "Fe"
      },
      {
        "species": [
          {
            "element": "Fe",
            "occu": 1
          }
        ],
        "abc": [
          0.05942522,
          0.15410939,
          0.07976205
        ],
        "xyz": [
          0.5936994985451196,
          1.6018085344702524,
          0.7577012667475984
        ],
        "properties": {
          "magmom": 3.777
        },
        "label": "Fe"
      },
      {
        "species": [
          {
            "element": "Fe",
            "occu": 1
          }
        ],
        "abc": [
          0.43063264,
          0.25437097000000003,
          0.10556713000000001
        ],
        "xyz": [
          4.550900015771338,
          2.6755348600712128,
          0.7573195898106923
        ],
        "properties": {
          "magmom": 3.818
        },
        "label": "Fe"
      },
      {
        "species": [
          {
            "element": "Fe",
            "occu": 1
          }
        ],
        "abc": [
          0.5218648,
          0.56255199,
          0.27187116
        ],
        "xyz": [
          5.438465401303571,
          5.876345623495355,
          2.3596285620370434
        ],
        "properties": {
          "magmom": 3.783
        },
        "label": "Fe"
      },
      {
        "species": [
          {
            "element": "O",
            "occu": 1
          }
        ],
        "abc": [
          0.43526942,
          0.56612249,
          0.45617657
        ],
        "xyz": [
          4.383531229145539,
          5.9130528935283095,
          4.255728925487541
        ],
        "properties": {
          "magmom": 0.23800000000000002
        },
        "label": "O"
      },
      {
        "species": [
          {
            "element": "O",
            "occu": 1
          }
        ],
        "abc": [
          0.48006108000000003,
          0.11871879,
          0.6568998500000001
        ],
        "xyz": [
          4.676029856486243,
          1.303776473434539,
          6.207685577838562
        ],
        "properties": {
          "magmom": 0.126
        },
        "label": "O"
      },
      {
        "species": [
          {
            "element": "O",
            "occu": 1
          }
        ],
        "abc": [
          0.02843019,
          0.76143279,
          0.1692724
        ],
        "xyz": [
          0.2593408841535933,
          7.877969453314544,
          1.6913876046547793
        ],
        "properties": {
          "magmom": 0.11900000000000001
        },
        "label": "O"
      },
      {
        "species": [
          {
            "element": "O",
            "occu": 1
          }
        ],
        "abc": [
          0.24463871,
          0.58436279,
          0.26381741000000003
        ],
        "xyz": [
          2.484764214994122,
          6.074002634090153,
          2.4749007861492887
        ],
        "properties": {
          "magmom": 0.162
        },
        "label": "O"
      },
      {
        "species": [
          {
            "element": "O",
            "occu": 1
          }
        ],
        "abc": [
          0.23497666,
          0.1997292,
          0.05779688
        ],
        "xyz": [
          2.4891011862776002,
          2.0894902658431396,
          0.4172351184547258
        ],
        "properties": {
          "magmom": 0.211
        },
        "label": "O"
      },
      {
        "species": [
          {
            "element": "O",
            "occu": 1
          }
        ],
        "abc": [
          0.19335673,
          0.05600976,
          0.35368157
        ],
        "xyz": [
          1.8212524242245713,
          0.613819340862138,
          3.387747477329723
        ],
        "properties": {
          "magmom": 0.11900000000000001
        },
        "label": "O"
      },
      {
        "species": [
          {
            "element": "O",
            "occu": 1
          }
        ],
        "abc": [
          0.5435803100000001,
          0.59020501,
          0.74752722
        ],
        "xyz": [
          5.3371391741400425,
          6.185772589671693,
          7.08148928003382
        ],
        "properties": {
          "magmom": 0.151
        },
        "label": "O"
      },
      {
        "species": [
          {
            "element": "O",
            "occu": 1
          }
        ],
        "abc": [
          0.70775022,
          0.82077214,
          0.08619269
        ],
        "xyz": [
          7.580922998391786,
          8.554315229136709,
          0.38901602140885083
        ],
        "properties": {
          "magmom": 0.165
        },
        "label": "O"
      },
      {
        "species": [
          {
            "element": "O",
            "occu": 1
          }
        ],
        "abc": [
          0.68239512,
          0.48244251,
          0.41378826
        ],
        "xyz": [
          7.045201246509825,
          5.070878758471016,
          3.6572370466342083
        ],
        "properties": {
          "magmom": 0.152
        },
        "label": "O"
      },
      {
        "species": [
          {
            "element": "O",
            "occu": 1
          }
        ],
        "abc": [
          0.66665266,
          0.368027699999999,
          0.830585
        ],
        "xyz": [
          6.571269007669252,
          3.906030158338364,
          7.814507540524675
        ],
        "properties": {
          "magmom": 0.20600000000000002
        },
        "label": "O"
      },
      {
        "species": [
          {
            "element": "O",
            "occu": 1
          }
        ],
        "abc": [
          0.78488167,
          0.21649164,
          0.36850765
        ],
        "xyz": [
          8.145761598207711,
          2.3309991883691557,
          3.125343283990107
        ],
        "properties": {
          "magmom": 0.11
        },
        "label": "O"
      },
      {
        "species": [
          {
            "element": "O",
            "occu": 1
          }
        ],
        "abc": [
          0.77276876,
          0.08020567,
          0.98390197
        ],
        "xyz": [
          7.568138091252266,
          0.9495273574323059,
          9.256784479433826
        ],
        "properties": {
          "magmom": 0.129
        },
        "label": "O"
      },
      {
        "species": [
          {
            "element": "O",
            "occu": 1
          }
        ],
        "abc": [
          0.32796145,
          0.26163356,
          0.48905018
        ],
        "xyz": [
          3.1838818823402413,
          2.7578339159020038,
          4.648076523386918
        ],
        "properties": {
          "magmom": 0.211
        },
        "label": "O"
      },
      {
        "species": [
          {
            "element": "O",
            "occu": 1
          }
        ],
        "abc": [
          0.13490183,
          0.43142347000000003,
          0.43727367
        ],
        "xyz": [
          1.174819099870877,
          4.490800727834746,
          4.273907984853841
        ],
        "properties": {
          "magmom": 0.181
        },
        "label": "O"
      },
      {
        "species": [
          {
            "element": "O",
            "occu": 1
          }
        ],
        "abc": [
          0.75236401,
          0.66524322,
          0.62603251
        ],
        "xyz": [
          7.660775028372871,
          6.976184978902402,
          5.727651613726411
        ],
        "properties": {
          "magmom": 0.14400000000000002
        },
        "label": "O"
      },
      {
        "species": [
          {
            "element": "O",
            "occu": 1
          }
        ],
        "abc": [
          0.39414055000000003,
          0.35739407,
          0.91924647
        ],
        "xyz": [
          3.5963943436268435,
          3.7733044662675495,
          8.88837247127813
        ],
        "properties": {
          "magmom": 0.228
        },
        "label": "O"
      },
      {
        "species": [
          {
            "element": "O",
            "occu": 1
          }
        ],
        "abc": [
          0.11775309,
          0.48188938000000003,
          0.9988719300000001
        ],
        "xyz": [
          0.5998519398615233,
          5.036004775184771,
          9.879580908246744
        ],
        "properties": {
          "magmom": 0.177
        },
        "label": "O"
      },
      {
        "species": [
          {
            "element": "O",
            "occu": 1
          }
        ],
        "abc": [
          0.4619076,
          0.04492547,
          0.10426879
        ],
        "xyz": [
          4.8652317533991845,
          0.5144675828263039,
          0.7153033970993429
        ],
        "properties": {
          "magmom": 0.117
        },
        "label": "O"
      },
      {
        "species": [
          {
            "element": "O",
            "occu": 1
          }
        ],
        "abc": [
          0.02444358,
          0.16841061000000002,
          0.56106364
        ],
        "xyz": [
          -0.1186172577084828,
          1.767943143181896,
          5.575145311247799
        ],
        "properties": {
          "magmom": 0.154
        },
        "label": "O"
      },
      {
        "species": [
          {
            "element": "O",
            "occu": 1
          }
        ],
        "abc": [
          0.94110844,
          0.94568901,
          0.65837192
        ],
        "xyz": [
          9.681945747094359,
          9.893965204349092,
          5.926620880910189
        ],
        "properties": {
          "magmom": 0.14
        },
        "label": "O"
      },
      {
        "species": [
          {
            "element": "O",
            "occu": 1
          }
        ],
        "abc": [
          0.90402509,
          0.99128595,
          0.29822088
        ],
        "xyz": [
          9.54473476965374,
          10.345112668693549,
          2.3681444681341333
        ],
        "properties": {
          "magmom": 0.168
        },
        "label": "O"
      },
      {
        "species": [
          {
            "element": "O",
            "occu": 1
          }
        ],
        "abc": [
          0.96401803,
          0.27816494,
          0.1774242
        ],
        "xyz": [
          10.200524050951072,
          2.977240867822841,
          1.0989706955922374
        ],
        "properties": {
          "magmom": 0.14100000000000001
        },
        "label": "O"
      },
      {
        "species": [
          {
            "element": "O",
            "occu": 1
          }
        ],
        "abc": [
          0.79227413,
          0.16100309000000002,
          0.67578196
        ],
        "xyz": [
          8.002170389855877,
          1.7723220835536184,
          6.1778372585543835
        ],
        "properties": {
          "magmom": 0.164
        },
        "label": "O"
      },
      {
        "species": [
          {
            "element": "O",
            "occu": 1
          }
        ],
        "abc": [
          0.65959817,
          0.93832148,
          0.4138541
        ],
        "xyz": [
          6.846651673239969,
          9.778996338864186,
          3.689404671323729
        ],
        "properties": {
          "magmom": 0.122
        },
        "label": "O"
      },
      {
        "species": [
          {
            "element": "O",
            "occu": 1
          }
        ],
        "abc": [
          0.17359438,
          0.33654889,
          0.74313562
        ],
        "xyz": [
          1.3627071245170115,
          3.528190585121229,
          7.289014688405216
        ],
        "properties": {
          "magmom": 0.229
        },
        "label": "O"
      },
      {
        "species": [
          {
            "element": "O",
            "occu": 1
          }
        ],
        "abc": [
          0.53458823,
          0.56627022,
          0.07187714
        ],
        "xyz": [
          5.71604536830872,
          5.906953269059468,
          0.3594498319688589
        ],
        "properties": {
          "magmom": 0.201
        },
        "label": "O"
      },
      {
        "species": [
          {
            "element": "O",
            "occu": 1
          }
        ],
        "abc": [
          0.24271708,
          0.81870584,
          0.01728127
        ],
        "xyz": [
          2.661556268594423,
          8.483983889421623,
          0.029423418647973695
        ],
        "properties": {
          "magmom": 0.134
        },
        "label": "O"
      },
      {
        "species": [
          {
            "element": "O",
            "occu": 1
          }
        ],
        "abc": [
          0.43992402,
          0.36286182,
          0.27276935
        ],
        "xyz": [
          4.542750084855869,
          3.8050103396039043,
          2.4193376781119973
        ],
        "properties": {
          "magmom": 0.192
        },
        "label": "O"
      },
      {
        "species": [
          {
            "element": "O",
            "occu": 1
          }
        ],
        "abc": [
          0.46301996,
          0.76518971,
          0.24644484
        ],
        "xyz": [
          4.847818560514803,
          7.963141498374041,
          2.1546771654118664
        ],
        "properties": {
          "magmom": 0.16
        },
        "label": "O"
      },
      {
        "species": [
          {
            "element": "O",
            "occu": 1
          }
        ],
        "abc": [
          0.00656981,
          0.68434161,
          0.5356087900000001
        ],
        "xyz": [
          -0.24061186975454052,
          7.095876072627487,
          5.351783570951803
        ],
        "properties": {
          "magmom": 0.107
        },
        "label": "O"
      },
      {
        "species": [
          {
            "element": "O",
            "occu": 1
          }
        ],
        "abc": [
          0.04674763,
          0.03553963,
          0.92363794
        ],
        "xyz": [
          -0.14962320788394512,
          0.4136904017226191,
          9.165164159984709
        ],
        "properties": {
          "magmom": 0.14200000000000002
        },
        "label": "O"
      },
      {
        "species": [
          {
            "element": "O",
            "occu": 1
          }
        ],
        "abc": [
          0.92690371,
          0.47115859,
          0.68959532
        ],
        "xyz": [
          9.461266994635963,
          4.9909013233531185,
          6.231360327688376
        ],
        "properties": {
          "magmom": 0.131
        },
        "label": "O"
      },
      {
        "species": [
          {
            "element": "O",
            "occu": 1
          }
        ],
        "abc": [
          0.79697231,
          0.52707861,
          0.00092214
        ],
        "xyz": [
          8.565293567079696,
          5.524664295597763,
          -0.5326894302047231
        ],
        "properties": {
          "magmom": 0.167
        },
        "label": "O"
      },
      {
        "species": [
          {
            "element": "O",
            "occu": 1
          }
        ],
        "abc": [
          0.8742795600000001,
          0.792526699999999,
          0.88143233
        ],
        "xyz": [
          8.795311181552425,
          8.31493900082624,
          8.18939742753861
        ],
        "properties": {
          "magmom": 0.146
        },
        "label": "O"
      },
      {
        "species": [
          {
            "element": "O",
            "occu": 1
          }
        ],
        "abc": [
          0.27901241,
          0.05904391,
          0.7948695
        ],
        "xyz": [
          2.424904062247962,
          0.6736150219146005,
          7.720655783521039
        ],
        "properties": {
          "magmom": 0.14400000000000002
        },
        "label": "O"
      },
      {
        "species": [
          {
            "element": "O",
            "occu": 1
          }
        ],
        "abc": [
          0.26482696,
          0.62445304,
          0.68883801
        ],
        "xyz": [
          2.404123916491231,
          6.509491218315143,
          6.694072795012197
        ],
        "properties": {
          "magmom": 0.146
        },
        "label": "O"
      },
      {
        "species": [
          {
            "element": "O",
            "occu": 1
          }
        ],
        "abc": [
          0.49392905000000004,
          0.82389344,
          0.8804050600000001
        ],
        "xyz": [
          4.735934354943728,
          8.60148186908971,
          8.447392543952494
        ],
        "properties": {
          "magmom": 0.111
        },
        "label": "O"
      },
      {
        "species": [
          {
            "element": "O",
            "occu": 1
          }
        ],
        "abc": [
          0.89813371,
          0.5529769800000001,
          0.28554086
        ],
        "xyz": [
          9.447460400342667,
          5.815136059089172,
          2.231123685336126
        ],
        "properties": {
          "magmom": 0.129
        },
        "label": "O"
      },
      {
        "species": [
          {
            "element": "O",
            "occu": 1
          }
        ],
        "abc": [
          0.63469586,
          0.28023226,
          0.12080345
        ],
        "xyz": [
          6.722653062844982,
          2.9635598859387895,
          0.7665754611131165
        ],
        "properties": {
          "magmom": 0.248
        },
        "label": "O"
      },
      {
        "species": [
          {
            "element": "O",
            "occu": 1
          }
        ],
        "abc": [
          0.33445135,
          0.8573592600000001,
          0.5334750500000001
        ],
        "xyz": [
          3.280672753530585,
          8.915814525749724,
          5.106116831097325
        ],
        "properties": {
          "magmom": 0.062
        },
        "label": "O"
      }
    ]
  },
  "formation_energy_per_atom": -1.16118119475,
  "energy_above_hull": 0.32033819274999903,
  "band_gap": 0.0468,
  "is_gap_direct": false,
  "is_metal": false,
  "ordering": "FM",
  "total_magnetization": 162.0000022,
  "bulk_modulus": null,
  "shear_modulus": null
}