{
  "material_id": "mp-1244983",
  "formula_pretty": "FeO",
  "elements": [
    {
      "@module": "pymatgen.core.periodic_table",
      "@class": "Element",
      "element": "Fe"
    },
    {
      "@module": "pymatgen.core.periodic_table",
      "@class": "Element",
      "element": "O"
    }
  ],
  "nelements": 2,
  "composition": {
    "Fe": 40.0,
    "O": 40.0
  },
  "composition_reduced": {
    "Fe": 1.0,
    "O": 1.0
  },
  "chemsys": "Fe-O",
  "volume": 1092.6376192788039,
  "density": 4.367429083951232,
  "density_atomic": 13.657970240985048,
  "symmetry": {
    "crystal_system": {},
    "symbol": "P1",
    "number": 1,
    "point_group": "1",
    "symprec": 0.1,
    "version": "2.5.0"
  },
  "structure": {
    "@module": "pymatgen.core.structure",
    "@class": "Structure",
    "charge": 0,
    "lattice": {
      "matrix": [
        [
          10.625443,
          -0.815076999999999,
          0.225834999999999
        ],
        [
          -0.794983,
          10.421934,
          -0.328808
        ],
        [
          0.186647999999999,
          -0.317376999999999,
          9.938067
        ]
      ],
      "pbc": [
        true,
        true,
        true
      ],
      "a": 10.659052064297416,
      "b": 10.45738117176136,
      "c": 9.944885184481619,
      "alpha": 93.70694759944129,
      "beta": 87.57439992446835,
      "gamma": 98.78090990323253,
      "volume": 1092.637619278804
    },
    "properties": {},
    "sites": [
      {
        "species": [
          {
            "element": "Fe",
            "occu": 1
          }
        ],
        "abc": [
          0.114982,
          0.855734999999999,
          0.106376
        ],
        "xyz": [
          0.5612947771690009,
          8.79093321212399,
          0.8017662612820002
        ],
        "properties": {
          "magmom": 3.792
        },
        "label": "Fe"
      },
      {
        "species": [
          {
            "element": "Fe",
            "occu": 1
          }
        ],
        "abc": [
          0.23832000000000003,
          0.645732,
          0.834401
        ],
        "xyz": [
          2.174648891052,
          6.2707074488710015,
          8.133832192610999
        ],
        "properties": {
          "magmom": 3.787
        },
        "label": "Fe"
      },
      {
        "species": [
          {
            "element": "Fe",
            "occu": 1
          }
        ],
        "abc": [
          0.997911999999999,
          0.057635,
          0.842627999999999
        ],
        "xyz": [
          10.71471306075499,
          -0.48013769988999716,
          8.580506127515989
        ],
        "properties": {
          "magmom": 3.766
        },
        "label": "Fe"
      },
      {
        "species": [
          {
            "element": "Fe",
            "occu": 1
          }
        ],
        "abc": [
          0.840013,
          0.9809329999999991,
          0.150544999999999
        ],
        "xyz": [
          8.17378411478,
          9.490764187955993,
          1.3632920145059897
        ],
        "properties": {
          "magmom": 3.781
        },
        "label": "Fe"
      },
      {
        "species": [
          {
            "element": "Fe",
            "occu": 1
          }
        ],
        "abc": [
          0.059961999999999,
          0.983699,
          0.427886999999999
        ],
        "xyz": [
          -0.06503691617501121,
          10.067370914393003,
          3.94246309190699
        ],
        "properties": {
          "magmom": 3.784
        },
        "label": "Fe"
      },
      {
        "species": [
          {
            "element": "Fe",
            "occu": 1
          }
        ],
        "abc": [
          0.136866,
          0.854298,
          0.668495
        ],
        "xyz": [
          0.8998827494639993,
          8.579716106035002,
          6.393557215491
        ],
        "properties": {
          "magmom": 3.781
        },
        "label": "Fe"
      },
      {
        "species": [
          {
            "element": "Fe",
            "occu": 1
          }
        ],
        "abc": [
          0.894984999999999,
          0.566506,
          0.07016599999999901
        ],
        "xyz": [
          9.072345807524991,
          5.152337379177002,
          0.7131616417489891
        ],
        "properties": {
          "magmom": 3.783
        },
        "label": "Fe"
      },
      {
        "species": [
          {
            "element": "Fe",
            "occu": 1
          }
        ],
        "abc": [
          0.845537,
          0.754344999999999,
          0.308046
        ],
        "xyz": [
          8.442009916564,
          7.074789326538991,
          3.0042989647169995
        ],
        "properties": {
          "magmom": 3.69
        },
        "label": "Fe"
      },
      {
        "species": [
          {
            "element": "Fe",
            "occu": 1
          }
        ],
        "abc": [
          0.316216,
          0.468352999999999,
          0.117156
        ],
        "xyz": [
          3.009469343777001,
          4.58622104625799,
          1.081718604588
        ],
        "properties": {
          "magmom": 3.784
        },
        "label": "Fe"
      },
      {
        "species": [
          {
            "element": "Fe",
            "occu": 1
          }
        ],
        "abc": [
          0.403273999999999,
          0.416315,
          0.788998
        ],
        "xyz": [
          4.101266451440989,
          3.759698272866002,
          7.795300668135999
        ],
        "properties": {
          "magmom": 4.331
        },
        "label": "Fe"
      },
      {
        "species": [
          {
            "element": "Fe",
            "occu": 1
          }
        ],
        "abc": [
          0.570079,
          0.448352,
          0.278073
        ],
        "xyz": [
          5.752811471285001,
          4.119782697164,
          2.74483017144
        ],
        "properties": {
          "magmom": 3.781
        },
        "label": "Fe"
      },
      {
        "species": [
          {
            "element": "Fe",
            "occu": 1
          }
        ],
        "abc": [
          0.677809,
          0.304148,
          0.593623
        ],
        "xyz": [
          7.071026950606999,
          2.428941569068001,
          5.952531846672
        ],
        "properties": {
          "magmom": 3.758
        },
        "label": "Fe"
      },
      {
        "species": [
          {
            "element": "Fe",
            "occu": 1
          }
        ],
        "abc": [
          0.475228999999999,
          0.789783,
          0.69967
        ],
        "xyz": [
          4.552246598917989,
          7.621658907099002,
          6.801003710441
        ],
        "properties": {
          "magmom": 3.802
        },
        "label": "Fe"
      },
      {
        "species": [
          {
            "element": "Fe",
            "occu": 1
          }
        ],
        "abc": [
          0.564726,
          0.9381800000000001,
          0.28779000000000005
        ],
        "xyz": [
          5.308342200597999,
          9.226016939388002,
          2.6791301087
        ],
        "properties": {
          "magmom": 3.672
        },
        "label": "Fe"
      },
      {
        "species": [
          {
            "element": "Fe",
            "occu": 1
          }
        ],
        "abc": [
          0.173048999999999,
          0.183524,
          0.641788
        ],
        "xyz": [
          1.812612272238989,
          1.5679380055670016,
          6.356868505319
        ],
        "properties": {
          "magmom": 4.313
        },
        "label": "Fe"
      },
      {
        "species": [
          {
            "element": "Fe",
            "occu": 1
          }
        ],
        "abc": [
          0.881988,
          0.26962,
          0.051153
        ],
        "xyz": [
          9.166717509368,
          2.074838926323001,
          0.6188924882709991
        ],
        "properties": {
          "magmom": 3.757
        },
        "label": "Fe"
      },
      {
        "species": [
          {
            "element": "Fe",
            "occu": 1
          }
        ],
        "abc": [
          0.887618999999999,
          0.384193,
          0.774986
        ],
        "xyz": [
          9.270567773425988,
          3.034593525877003,
          7.775992496982998
        ],
        "properties": {
          "magmom": 3.743999999999999
        },
        "label": "Fe"
      },
      {
        "species": [
          {
            "element": "Fe",
            "occu": 1
          }
        ],
        "abc": [
          0.282457,
          0.951052,
          0.919887999999999
        ],
        "xyz": [
          2.4168558367589994,
          9.389625676603002,
          8.89298374707499
        ],
        "properties": {
          "magmom": 3.6470000000000002
        },
        "label": "Fe"
      },
      {
        "species": [
          {
            "element": "Fe",
            "occu": 1
          }
        ],
        "abc": [
          0.873390999999999,
          0.197611999999999,
          0.423023
        ],
        "xyz": [
          9.20202450352099,
          1.2133605348299918,
          4.336296766529999
        ],
        "properties": {
          "magmom": 3.779
        },
        "label": "Fe"
      },
      {
        "species": [
          {
            "element": "Fe",
            "occu": 1
          }
        ],
        "abc": [
          0.14032,
          0.670418,
          0.330634
        ],
        "xyz": [
          1.0197034236979998,
          6.767744916754,
          3.0971132099339997
        ],
        "properties": {
          "magmom": 3.776
        },
        "label": "Fe"
      },
      {
        "species": [
          {
            "element": "Fe",
            "occu": 1
          }
        ],
        "abc": [
          0.576025,
          0.9637969999999991,
          0.989973999999999
        ],
        "xyz": [
          5.539095240776,
          9.260929016274993,
          9.65161038215699
        ],
        "properties": {
          "magmom": 3.727
        },
        "label": "Fe"
      },
      {
        "species": [
          {
            "element": "Fe",
            "occu": 1
          }
        ],
        "abc": [
          0.457876,
          0.692797,
          0.35642
        ],
        "xyz": [
          4.380898581777001,
          6.733960902606,
          3.4177330706239997
        ],
        "properties": {
          "magmom": 3.77
        },
        "label": "Fe"
      },
      {
        "species": [
          {
            "element": "Fe",
            "occu": 1
          }
        ],
        "abc": [
          0.729171,
          0.096474999999999,
          0.773076
        ],
        "xyz": [
          7.815362002076001,
          0.1657690298309911,
          7.815831665077
        ],
        "properties": {
          "magmom": 3.748
        },
        "label": "Fe"
      },
      {
        "species": [
          {
            "element": "Fe",
            "occu": 1
          }
        ],
        "abc": [
          0.124692,
          0.335329,
          0.898451
        ],
        "xyz": [
          1.226020966396999,
          3.107995441975001,
          8.846767194205
        ],
        "properties": {
          "magmom": 4.301
        },
        "label": "Fe"
      },
      {
        "species": [
          {
            "element": "Fe",
            "occu": 1
          }
        ],
        "abc": [
          0.347342999999999,
          0.506927,
          0.536795
        ],
        "xyz": [
          3.387866613867989,
          4.8296820596920025,
          5.2464652286539994
        ],
        "properties": {
          "magmom": 3.782
        },
        "label": "Fe"
      },
      {
        "species": [
          {
            "element": "Fe",
            "occu": 1
          }
        ],
        "abc": [
          0.715457,
          0.8128879999999991,
          0.838141999999999
        ],
        "xyz": [
          7.112252959563,
          7.622705546668992,
          8.22380250560499
        ],
        "properties": {
          "magmom": 3.759
        },
        "label": "Fe"
      },
      {
        "species": [
          {
            "element": "Fe",
            "occu": 1
          }
        ],
        "abc": [
          0.685443999999999,
          0.580326999999999,
          0.559068
        ],
        "xyz": [
          6.9261449763149905,
          5.312004728593991,
          5.52003632708
        ],
        "properties": {
          "magmom": 3.68
        },
        "label": "Fe"
      },
      {
        "species": [
          {
            "element": "Fe",
            "occu": 1
          }
        ],
        "abc": [
          0.317297,
          0.911185999999999,
          0.445764
        ],
        "xyz": [
          2.7302447668050007,
          9.096223625826992,
          4.2020840198950005
        ],
        "properties": {
          "magmom": 3.767
        },
        "label": "Fe"
      },
      {
        "species": [
          {
            "element": "Fe",
            "occu": 1
          }
        ],
        "abc": [
          0.398625,
          0.767762,
          0.092028
        ],
        "xyz": [
          3.642386319973,
          7.647447252027,
          0.7521576190549997
        ],
        "properties": {
          "magmom": 3.71
        },
        "label": "Fe"
      },
      {
        "species": [
          {
            "element": "Fe",
            "occu": 1
          }
        ],
        "abc": [
          0.601525,
          0.308793,
          0.972058
        ],
        "xyz": [
          6.32741709664,
          2.4194222213710015,
          9.694689321517
        ],
        "properties": {
          "magmom": 3.7720000000000002
        },
        "label": "Fe"
      },
      {
        "species": [
          {
            "element": "Fe",
            "occu": 1
          }
        ],
        "abc": [
          0.957426,
          0.737630999999999,
          0.864803999999999
        ],
        "xyz": [
          9.748085221437,
          6.632696787443993,
          8.56816142072999
        ],
        "properties": {
          "magmom": 3.767
        },
        "label": "Fe"
      },
      {
        "species": [
          {
            "element": "Fe",
            "occu": 1
          }
        ],
        "abc": [
          0.649712,
          0.189309,
          0.264611
        ],
        "xyz": [
          6.802369499597,
          1.3594191504350008,
          2.714203242784999
        ],
        "properties": {
          "magmom": 3.711
        },
        "label": "Fe"
      },
      {
        "species": [
          {
            "element": "Fe",
            "occu": 1
          }
        ],
        "abc": [
          0.6769700000000001,
          0.920277999999999,
          0.538347
        ],
        "xyz": [
          6.561982173292001,
          8.86843494514299,
          5.200417306575
        ],
        "properties": {
          "magmom": 3.776
        },
        "label": "Fe"
      },
      {
        "species": [
          {
            "element": "Fe",
            "occu": 1
          }
        ],
        "abc": [
          0.997698,
          0.540907,
          0.574869
        ],
        "xyz": [
          10.278269509745,
          4.641646162779002,
          5.760547217196999
        ],
        "properties": {
          "magmom": 3.778
        },
        "label": "Fe"
      },
      {
        "species": [
          {
            "element": "Fe",
            "occu": 1
          }
        ],
        "abc": [
          0.619169,
          0.607441,
          0.02807
        ],
        "xyz": [
          6.101278857724,
          5.817130827491001,
          0.21906011147699941
        ],
        "properties": {
          "magmom": 4.325
        },
        "label": "Fe"
      },
      {
        "species": [
          {
            "element": "Fe",
            "occu": 1
          }
        ],
        "abc": [
          0.835509,
          0.481927999999999,
          0.341477
        ],
        "xyz": [
          8.558264687359,
          4.233240693729991,
          3.4238466981499993
        ],
        "properties": {
          "magmom": 3.6550000000000002
        },
        "label": "Fe"
      },
      {
        "species": [
          {
            "element": "Fe",
            "occu": 1
          }
        ],
        "abc": [
          0.13448000000000002,
          0.35648,
          0.396184
        ],
        "xyz": [
          1.2194609860319998,
          3.479859787992001,
          3.850459951288
        ],
        "properties": {
          "magmom": 4.316
        },
        "label": "Fe"
      },
      {
        "species": [
          {
            "element": "Fe",
            "occu": 1
          }
        ],
        "abc": [
          0.121102,
          0.15485000000000002,
          0.176337
        ],
        "xyz": [
          1.196572229012,
          1.4591637169970004,
          1.728882071949
        ],
        "properties": {
          "magmom": 3.779
        },
        "label": "Fe"
      },
      {
        "species": [
          {
            "element": "Fe",
            "occu": 1
          }
        ],
        "abc": [
          0.416282,
          0.105715999999999,
          0.155765
        ],
        "xyz": [
          4.368211465818,
          0.7130270626249902,
          1.607253785197
        ],
        "properties": {
          "magmom": 3.73
        },
        "label": "Fe"
      },
      {
        "species": [
          {
            "element": "Fe",
            "occu": 1
          }
        ],
        "abc": [
          0.418246,
          0.208407999999999,
          0.506809
        ],
        "xyz": [
          4.3729631021460005,
          1.6702622061369905,
          5.062630165949
        ],
        "properties": {
          "magmom": 3.769
        },
        "label": "Fe"
      },
      {
        "species": [
          {
            "element": "O",
            "occu": 1
          }
        ],
        "abc": [
          0.388638999999999,
          0.585544,
          0.718316
        ],
        "xyz": [
          3.798036261092989,
          5.557753234761002,
          7.033909272184999
        ],
        "properties": {
          "magmom": 0.218
        },
        "label": "O"
      },
      {
        "species": [
          {
            "element": "O",
            "occu": 1
          }
        ],
        "abc": [
          0.536136,
          0.459084,
          0.919130999999999
        ],
        "xyz": [
          5.5032724955639996,
          4.055839986597002,
          9.10451324146499
        ],
        "properties": {
          "magmom": 0.268
        },
        "label": "O"
      },
      {
        "species": [
          {
            "element": "O",
            "occu": 1
          }
        ],
        "abc": [
          0.064123,
          0.660598999999999,
          0.729293
        ],
        "xyz": [
          0.29229138653600006,
          6.600993171533991,
          7.045033678344
        ],
        "properties": {
          "magmom": 0.14300000000000002
        },
        "label": "O"
      },
      {
        "species": [
          {
            "element": "O",
            "occu": 1
          }
        ],
        "abc": [
          0.9634069999999991,
          0.622128999999999,
          0.25711
        ],
        "xyz": [
          9.790033252773991,
          5.616935689676993,
          2.568186433982999
        ],
        "properties": {
          "magmom": 0.097
        },
        "label": "O"
      },
      {
        "species": [
          {
            "element": "O",
            "occu": 1
          }
        ],
        "abc": [
          0.245217,
          0.038553,
          0.097658
        ],
        "xyz": [
          2.593117946916,
          0.1709316817270003,
          1.0132337934569997
        ],
        "properties": {
          "magmom": 0.107
        },
        "label": "O"
      },
      {
        "species": [
          {
            "element": "O",
            "occu": 1
          }
        ],
        "abc": [
          0.277429,
          0.064024,
          0.555032
        ],
        "xyz": [
          3.0005036471909996,
          0.26497351431900085,
          5.557546777967
        ],
        "properties": {
          "magmom": 0.23900000000000002
        },
        "label": "O"
      },
      {
        "species": [
          {
            "element": "O",
            "occu": 1
          }
        ],
        "abc": [
          0.040891,
          0.01734,
          0.651193
        ],
        "xyz": [
          0.5422438555569994,
          -0.05928665880799929,
          6.475132752196
        ],
        "properties": {
          "magmom": 0.186
        },
        "label": "O"
      },
      {
        "species": [
          {
            "element": "O",
            "occu": 1
          }
        ],
        "abc": [
          0.793539,
          0.665026,
          0.937032
        ],
        "xyz": [
          8.077914196955,
          5.986669287717002,
          9.272829808201
        ],
        "properties": {
          "magmom": 0.193
        },
        "label": "O"
      },
      {
        "species": [
          {
            "element": "O",
            "occu": 1
          }
        ],
        "abc": [
          0.524143999999999,
          0.552626,
          0.446474
        ],
        "xyz": [
          5.213267399585989,
          5.190513400898001,
          4.373750736189999
        ],
        "properties": {
          "magmom": 0.112
        },
        "label": "O"
      },
      {
        "species": [
          {
            "element": "O",
            "occu": 1
          }
        ],
        "abc": [
          0.526347,
          0.282966999999999,
          0.152278
        ],
        "xyz": [
          5.396138476304001,
          2.4717205296529907,
          1.5391747280349999
        ],
        "properties": {
          "magmom": 0.14100000000000001
        },
        "label": "O"
      },
      {
        "species": [
          {
            "element": "O",
            "occu": 1
          }
        ],
        "abc": [
          0.689744999999999,
          0.35079899999999903,
          0.39497000000000004
        ],
        "xyz": [
          7.12368730117799,
          2.968454346210992,
          3.965661367473
        ],
        "properties": {
          "magmom": 0.145
        },
        "label": "O"
      },
      {
        "species": [
          {
            "element": "O",
            "occu": 1
          }
        ],
        "abc": [
          0.7783800000000001,
          0.9730500000000001,
          0.962554999999999
        ],
        "xyz": [
          7.67673307983,
          9.201130425205003,
          9.42177490408499
        ],
        "properties": {
          "magmom": 0.122
        },
        "label": "O"
      },
      {
        "species": [
          {
            "element": "O",
            "occu": 1
          }
        ],
        "abc": [
          0.262553,
          0.316963999999999,
          0.517099
        ],
        "xyz": [
          2.634276438519,
          2.925261647471991,
          5.094037865476
        ],
        "properties": {
          "magmom": 0.23700000000000002
        },
        "label": "O"
      },
      {
        "species": [
          {
            "element": "O",
            "occu": 1
          }
        ],
        "abc": [
          0.549385,
          0.754908999999999,
          0.966217
        ],
        "xyz": [
          5.417661651624001,
          7.113165643551992,
          9.478179525542
        ],
        "properties": {
          "magmom": 0.20800000000000002
        },
        "label": "O"
      },
      {
        "species": [
          {
            "element": "O",
            "occu": 1
          }
        ],
        "abc": [
          0.669028,
          0.7596900000000001,
          0.649025
        ],
        "xyz": [
          6.625917462334,
          7.166144097879003,
          6.351351723534999
        ],
        "properties": {
          "magmom": 0.09
        },
        "label": "O"
      },
      {
        "species": [
          {
            "element": "O",
            "occu": 1
          }
        ],
        "abc": [
          0.195324,
          0.35022000000000003,
          0.214248
        ],
        "xyz": [
          1.836974042976,
          3.4227682380360007,
          2.058166836396
        ],
        "properties": {
          "magmom": 0.222
        },
        "label": "O"
      },
      {
        "species": [
          {
            "element": "O",
            "occu": 1
          }
        ],
        "abc": [
          0.959681999999999,
          0.38706,
          0.437662999999999
        ],
        "xyz": [
          9.97102919276999,
          3.1127948785750026,
          4.438985577410989
        ],
        "properties": {
          "magmom": 0.192
        },
        "label": "O"
      },
      {
        "species": [
          {
            "element": "O",
            "occu": 1
          }
        ],
        "abc": [
          0.299967,
          0.830799,
          0.766204999999999
        ],
        "xyz": [
          2.669821809803999,
          8.170860298522001,
          7.40916631558799
        ],
        "properties": {
          "magmom": 0.098
        },
        "label": "O"
      },
      {
        "species": [
          {
            "element": "O",
            "occu": 1
          }
        ],
        "abc": [
          0.029507,
          0.273153,
          0.735228
        ],
        "xyz": [
          0.23360179094599928,
          2.5893876039070003,
          7.223593945997
        ],
        "properties": {
          "magmom": 0.281
        },
        "label": "O"
      },
      {
        "species": [
          {
            "element": "O",
            "occu": 1
          }
        ],
        "abc": [
          0.747209,
          0.122343,
          0.570126
        ],
        "xyz": [
          7.948578911066,
          0.48507292176700123,
          5.794468973812999
        ],
        "properties": {
          "magmom": 0.111
        },
        "label": "O"
      },
      {
        "species": [
          {
            "element": "O",
            "occu": 1
          }
        ],
        "abc": [
          0.9854900000000001,
          0.911909,
          0.236983
        ],
        "xyz": [
          9.790548072507,
          8.625392225685001,
          2.2778680915389993
        ],
        "properties": {
          "magmom": 0.149
        },
        "label": "O"
      },
      {
        "species": [
          {
            "element": "O",
            "occu": 1
          }
        ],
        "abc": [
          0.059334,
          0.163096,
          0.376884999999999
        ],
        "xyz": [
          0.5711363190739995,
          1.5317993383010007,
          3.70528080561699
        ],
        "properties": {
          "magmom": 0.164
        },
        "label": "O"
      },
      {
        "species": [
          {
            "element": "O",
            "occu": 1
          }
        ],
        "abc": [
          0.756659,
          0.256982,
          0.892976
        ],
        "xyz": [
          8.002212938079,
          1.7781040514930015,
          8.960837665201
        ],
        "properties": {
          "magmom": 0.128
        },
        "label": "O"
      },
      {
        "species": [
          {
            "element": "O",
            "occu": 1
          }
        ],
        "abc": [
          0.578507,
          0.967951999999999,
          0.787323999999999
        ],
        "xyz": [
          5.524340218737,
          9.366525579980992,
          7.636855429836991
        ],
        "properties": {
          "magmom": 0.17200000000000001
        },
        "label": "O"
      },
      {
        "species": [
          {
            "element": "O",
            "occu": 1
          }
        ],
        "abc": [
          0.255687,
          0.486917,
          0.9358400000000001
        ],
        "xyz": [
          2.5043695712499994,
          4.569198152899001,
          9.198081489989
        ],
        "properties": {
          "magmom": 0.209
        },
        "label": "O"
      },
      {
        "species": [
          {
            "element": "O",
            "occu": 1
          }
        ],
        "abc": [
          0.48814,
          0.850063,
          0.483421999999999
        ],
        "xyz": [
          4.601147861547,
          8.308001770968001,
          4.63501180726999
        ],
        "properties": {
          "magmom": 0.148
        },
        "label": "O"
      },
      {
        "species": [
          {
            "element": "O",
            "occu": 1
          }
        ],
        "abc": [
          0.316639,
          0.775633,
          0.276311
        ],
        "xyz": [
          2.7993874923660003,
          7.737816011772001,
          2.5624710639379993
        ],
        "properties": {
          "magmom": 0.151
        },
        "label": "O"
      },
      {
        "species": [
          {
            "element": "O",
            "occu": 1
          }
        ],
        "abc": [
          0.504906,
          0.328179,
          0.652882
        ],
        "xyz": [
          5.225812316937,
          2.801512879910001,
          6.494502624971999
        ],
        "properties": {
          "magmom": 0.199
        },
        "label": "O"
      },
      {
        "species": [
          {
            "element": "O",
            "occu": 1
          }
        ],
        "abc": [
          0.484467,
          0.096278999999999,
          0.352502
        ],
        "xyz": [
          5.1369301189200005,
          0.49665944737299045,
          3.5809407931469996
        ],
        "properties": {
          "magmom": 0.131
        },
        "label": "O"
      },
      {
        "species": [
          {
            "element": "O",
            "occu": 1
          }
        ],
        "abc": [
          0.730579,
          0.886641,
          0.325034
        ],
        "xyz": [
          7.118527945426,
          8.541877528293002,
          3.103665323814999
        ],
        "properties": {
          "magmom": 0.106
        },
        "label": "O"
      },
      {
        "species": [
          {
            "element": "O",
            "occu": 1
          }
        ],
        "abc": [
          0.042788,
          0.187071,
          0.000426
        ],
        "xyz": [
          0.306002702339,
          1.9146308980359998,
          -0.047613796846000034
        ],
        "properties": {
          "magmom": 0.191
        },
        "label": "O"
      },
      {
        "species": [
          {
            "element": "O",
            "occu": 1
          }
        ],
        "abc": [
          0.17919000000000002,
          0.542576,
          0.465273999999999
        ],
        "xyz": [
          1.5594768965139998,
          5.360970348056001,
          4.48598822959999
        ],
        "properties": {
          "magmom": 0.197
        },
        "label": "O"
      },
      {
        "species": [
          {
            "element": "O",
            "occu": 1
          }
        ],
        "abc": [
          0.973858,
          0.431419,
          0.962042
        ],
        "xyz": [
          10.184265113433,
          3.397121083446002,
          9.638915055692
        ],
        "properties": {
          "magmom": 0.163
        },
        "label": "O"
      },
      {
        "species": [
          {
            "element": "O",
            "occu": 1
          }
        ],
        "abc": [
          0.803935,
          0.481575,
          0.650436
        ],
        "xyz": [
          8.280724158507999,
          4.157240511683001,
          6.487287495336999
        ],
        "properties": {
          "magmom": 0.114
        },
        "label": "O"
      },
      {
        "species": [
          {
            "element": "O",
            "occu": 1
          }
        ],
        "abc": [
          0.26787299999999903,
          0.260121999999999,
          0.802603
        ],
        "xyz": [
          2.78928096955699,
          2.2379094623959914,
          7.951287292779999
        ],
        "properties": {
          "magmom": 0.334
        },
        "label": "O"
      },
      {
        "species": [
          {
            "element": "O",
            "occu": 1
          }
        ],
        "abc": [
          0.066151,
          0.901018,
          0.9101400000000001
        ],
        "xyz": [
          0.15646549791899916,
          9.047574467405001,
          8.763709583921
        ],
        "properties": {
          "magmom": 0.188
        },
        "label": "O"
      },
      {
        "species": [
          {
            "element": "O",
            "occu": 1
          }
        ],
        "abc": [
          0.46695000000000003,
          0.590552,
          0.171502
        ],
        "xyz": [
          4.524082313530001,
          5.719662972164,
          1.6156737978679996
        ],
        "properties": {
          "magmom": 0.191
        },
        "label": "O"
      },
      {
        "species": [
          {
            "element": "O",
            "occu": 1
          }
        ],
        "abc": [
          0.7197300000000001,
          0.553482,
          0.169466999999999
        ],
        "xyz": [
          7.239071986200001,
          5.127932576919001,
          1.6647253153829895
        ],
        "properties": {
          "magmom": 0.199
        },
        "label": "O"
      },
      {
        "species": [
          {
            "element": "O",
            "occu": 1
          }
        ],
        "abc": [
          0.828117,
          0.175747,
          0.215847999999999
        ],
        "xyz": [
          8.699681701033999,
          1.0881393239930013,
          2.2743426689349895
        ],
        "properties": {
          "magmom": 0.11900000000000001
        },
        "label": "O"
      },
      {
        "species": [
          {
            "element": "O",
            "occu": 1
          }
        ],
        "abc": [
          0.126736,
          0.825736999999999,
          0.464300999999999
        ],
        "xyz": [
          0.7768401196249999,
          8.355118458208992,
          4.371366939230991
        ],
        "properties": {
          "magmom": 0.149
        },
        "label": "O"
      }
    ]
  },
  "formation_energy_per_atom": -1.203698771,
  "energy_above_hull": 0.277820616499998,
  "band_gap": 0.29050000000000004,
  "is_gap_direct": false,
  "is_metal": false,
  "ordering": "FM",
  "total_magnetization": 164.0037141,
  "bulk_modulus": null,
  "shear_modulus": null
}