{
  "material_id": {
    "parts": [
      "mp",
      1354450
    ],
    "string": "mp-1354450"
  },
  "formula_pretty": "FeO2",
  "elements": [
    {
      "@module": "pymatgen.core.periodic_table",
      "@class": "Element",
      "element": "Fe"
    },
    {
      "@module": "pymatgen.core.periodic_table",
      "@class": "Element",
      "element": "O"
    }
  ],
  "nelements": 2,
  "composition": {
    "Fe": 12.0,
    "O": 24.0
  },
  "composition_reduced": {
    "Fe": 1.0,
    "O": 2.0
  },
  "chemsys": "Fe-O",
  "volume": 447.14902079100943,
  "density": 3.914616064252285,
  "density_atomic": 12.420806133083595,
  "symmetry": {
    "crystal_system": {},
    "symbol": "P1",
    "number": 1,
    "point_group": "1",
    "symprec": 0.1,
    "version": "2.5.0"
  },
  "structure": {
    "@module": "pymatgen.core.structure",
    "@class": "Structure",
    "charge": 0,
    "lattice": {
      "matrix": [
        [
          5.939872,
          0.0,
          0.0
        ],
        [
          2.951597,
          5.192903,
          0.0
        ],
        [
          0.21521,
          0.281707,
          14.496561
        ]
      ],
      "pbc": [
        true,
        true,
        true
      ],
      "a": 5.939872,
      "b": 5.973120325074492,
      "c": 14.500894972541177,
      "alpha": 88.61198799958751,
      "beta": 89.14963335476214,
      "gamma": 60.386509195868534,
      "volume": 447.14902079100943
    },
    "properties": {},
    "sites": [
      {
        "species": [
          {
            "element": "Fe",
            "occu": 1
          }
        ],
        "abc": [
          0.68069,
          0.655528999999999,
          0.168337
        ],
        "xyz": [
          6.014296707262997,
          3.4515202219459953,
          2.440307589057
        ],
        "properties": {
          "magmom": 3.445
        },
        "label": "Fe"
      },
      {
        "species": [
          {
            "element": "Fe",
            "occu": 1
          }
        ],
        "abc": [
          0.501114,
          0.50054,
          0.499287
        ],
        "xyz": [
          4.561396935058,
          2.739908310529,
          7.2379444520069995
        ],
        "properties": {
          "magmom": 3.908
        },
        "label": "Fe"
      },
      {
        "species": [
          {
            "element": "Fe",
            "occu": 1
          }
        ],
        "abc": [
          0.331217,
          0.827225,
          0.333478999999999
        ],
        "xyz": [
          4.4807894281389995,
          4.3896425528280005,
          4.834298665718986
        ],
        "properties": {
          "magmom": 3.92
        },
        "label": "Fe"
      },
      {
        "species": [
          {
            "element": "Fe",
            "occu": 1
          }
        ],
        "abc": [
          0.164982,
          0.659686,
          0.168997999999999
        ],
        "xyz": [
          2.963469240426,
          3.4732933280439995,
          2.449889815877986
        ],
        "properties": {
          "magmom": 3.867
        },
        "label": "Fe"
      },
      {
        "species": [
          {
            "element": "Fe",
            "occu": 1
          }
        ],
        "abc": [
          0.9997069999999991,
          0.005249,
          0.500227
        ],
        "xyz": [
          6.0612784028269955,
          0.168174995336,
          7.251571219346999
        ],
        "properties": {
          "magmom": 3.951
        },
        "label": "Fe"
      },
      {
        "species": [
          {
            "element": "Fe",
            "occu": 1
          }
        ],
        "abc": [
          0.164519,
          0.173773999999999,
          0.168036
        ],
        "xyz": [
          1.5262956462059971,
          0.9497284433739949,
          2.435944124196
        ],
        "properties": {
          "magmom": 3.818
        },
        "label": "Fe"
      },
      {
        "species": [
          {
            "element": "Fe",
            "occu": 1
          }
        ],
        "abc": [
          0.6681100000000001,
          0.17321,
          0.665536
        ],
        "xyz": [
          4.622964000850001,
          1.086948878582,
          9.647983221696
        ],
        "properties": {
          "magmom": 3.398
        },
        "label": "Fe"
      },
      {
        "species": [
          {
            "element": "Fe",
            "occu": 1
          }
        ],
        "abc": [
          0.499125,
          0.002261,
          0.499716999999999
        ],
        "xyz": [
          3.078956268387,
          0.15251493060199972,
          7.244177973236986
        ],
        "properties": {
          "magmom": 4.088
        },
        "label": "Fe"
      },
      {
        "species": [
          {
            "element": "Fe",
            "occu": 1
          }
        ],
        "abc": [
          0.332389,
          0.33292000000000005,
          0.833742
        ],
        "xyz": [
          3.136423403268,
          1.9636922243540003,
          12.086391761262
        ],
        "properties": {
          "magmom": 4.028
        },
        "label": "Fe"
      },
      {
        "species": [
          {
            "element": "Fe",
            "occu": 1
          }
        ],
        "abc": [
          0.8333900000000001,
          0.33362,
          0.833966
        ],
        "xyz": [
          6.114419540080001,
          1.9673903588220003,
          12.089638990926
        ],
        "properties": {
          "magmom": 4.291
        },
        "label": "Fe"
      },
      {
        "species": [
          {
            "element": "Fe",
            "occu": 1
          }
        ],
        "abc": [
          0.832881,
          0.833213,
          0.832904
        ],
        "xyz": [
          7.585764792232999,
          4.561429174467,
          12.074243643144
        ],
        "properties": {
          "magmom": 4.146
        },
        "label": "Fe"
      },
      {
        "species": [
          {
            "element": "Fe",
            "occu": 1
          }
        ],
        "abc": [
          0.336495999999999,
          0.830969,
          0.954701999999999
        ],
        "xyz": [
          4.656890193424994,
          4.584087649321,
          13.839895779821987
        ],
        "properties": {
          "magmom": 4.28
        },
        "label": "Fe"
      },
      {
        "species": [
          {
            "element": "O",
            "occu": 1
          }
        ],
        "abc": [
          0.30360000000000004,
          0.345618,
          0.107378999999999
        ],
        "xyz": [
          2.846579225736,
          1.8250101650069999,
          1.5566262236189856
        ],
        "properties": {
          "magmom": -0.052000000000000005
        },
        "label": "O"
      },
      {
        "species": [
          {
            "element": "O",
            "occu": 1
          }
        ],
        "abc": [
          0.846945,
          0.354813999999999,
          0.104487
        ],
        "xyz": [
          6.100499476267998,
          1.871949404350995,
          1.514702169207
        ],
        "properties": {
          "magmom": -0.116
        },
        "label": "O"
      },
      {
        "species": [
          {
            "element": "O",
            "occu": 1
          }
        ],
        "abc": [
          0.979161,
          0.49586399999999903,
          0.246001
        ],
        "xyz": [
          7.332623577409997,
          2.644273856898995,
          3.5661685025609997
        ],
        "properties": {
          "magmom": 0.006
        },
        "label": "O"
      },
      {
        "species": [
          {
            "element": "O",
            "occu": 1
          }
        ],
        "abc": [
          0.842838,
          0.805083999999999,
          0.108705
        ],
        "xyz": [
          7.406027758933997,
          4.211346078286995,
          1.575848663505
        ],
        "properties": {
          "magmom": -0.064
        },
        "label": "O"
      },
      {
        "species": [
          {
            "element": "O",
            "occu": 1
          }
        ],
        "abc": [
          0.624973999999999,
          0.672744,
          0.419968
        ],
        "xyz": [
          5.788316048775995,
          3.611802261208,
          6.088091730048
        ],
        "properties": {
          "magmom": 0.009000000000000001
        },
        "label": "O"
      },
      {
        "species": [
          {
            "element": "O",
            "occu": 1
          }
        ],
        "abc": [
          0.480035,
          0.536654,
          0.23916
        ],
        "xyz": [
          4.4868024155579995,
          2.854165212682,
          3.4669975287600003
        ],
        "properties": {
          "magmom": 0.025
        },
        "label": "O"
      },
      {
        "species": [
          {
            "element": "O",
            "occu": 1
          }
        ],
        "abc": [
          0.344968,
          0.835364999999999,
          0.088593999999999
        ],
        "xyz": [
          4.533792906740997,
          4.362926964552995,
          1.2843083252339855
        ],
        "properties": {
          "magmom": 0.14
        },
        "label": "O"
      },
      {
        "species": [
          {
            "element": "O",
            "occu": 1
          }
        ],
        "abc": [
          0.47410599999999903,
          0.967777999999999,
          0.246048
        ],
        "xyz": [
          5.725571585977992,
          5.094890723469995,
          3.5668498409279996
        ],
        "properties": {
          "magmom": -0.113
        },
        "label": "O"
      },
      {
        "species": [
          {
            "element": "O",
            "occu": 1
          }
        ],
        "abc": [
          0.182842,
          0.691808,
          0.417616
        ],
        "xyz": [
          3.21787163296,
          3.7101371891359998,
          6.053995818575999
        ],
        "properties": {
          "magmom": 0.051000000000000004
        },
        "label": "O"
      },
      {
        "species": [
          {
            "element": "O",
            "occu": 1
          }
        ],
        "abc": [
          0.343478,
          0.828620999999999,
          0.567593999999999
        ],
        "xyz": [
          4.608122517292998,
          4.4628436797209945,
          8.228161044233985
        ],
        "properties": {
          "magmom": -0.015
        },
        "label": "O"
      },
      {
        "species": [
          {
            "element": "O",
            "occu": 1
          }
        ],
        "abc": [
          0.175628999999999,
          0.13195,
          0.426160999999999
        ],
        "xyz": [
          1.5243911124479939,
          0.8052560876769997,
          6.177868932320986
        ],
        "properties": {
          "magmom": 0.023
        },
        "label": "O"
      },
      {
        "species": [
          {
            "element": "O",
            "occu": 1
          }
        ],
        "abc": [
          0.047353,
          0.973650999999999,
          0.242589
        ],
        "xyz": [
          3.207303708152997,
          5.124414218275995,
          3.516706236429
        ],
        "properties": {
          "magmom": -0.07100000000000001
        },
        "label": "O"
      },
      {
        "species": [
          {
            "element": "O",
            "occu": 1
          }
        ],
        "abc": [
          0.947801,
          0.026767,
          0.746891
        ],
        "xyz": [
          5.869560430481,
          0.349402857538,
          10.827350941851
        ],
        "properties": {
          "magmom": 0.002
        },
        "label": "O"
      },
      {
        "species": [
          {
            "element": "O",
            "occu": 1
          }
        ],
        "abc": [
          0.819292999999999,
          0.88231,
          0.577483
        ],
        "xyz": [
          7.594999215995994,
          4.744431249411,
          8.371517535963
        ],
        "properties": {
          "magmom": -0.074
        },
        "label": "O"
      },
      {
        "species": [
          {
            "element": "O",
            "occu": 1
          }
        ],
        "abc": [
          0.658206,
          0.172003,
          0.43116000000000004
        ],
        "xyz": [
          4.510132872023,
          1.014655684829,
          6.25033724076
        ],
        "properties": {
          "magmom": 0.016
        },
        "label": "O"
      },
      {
        "species": [
          {
            "element": "O",
            "occu": 1
          }
        ],
        "abc": [
          0.814728999999999,
          0.310394,
          0.581905
        ],
        "xyz": [
          5.880775748955994,
          1.7757726456170002,
          8.435621328705
        ],
        "properties": {
          "magmom": 0.051000000000000004
        },
        "label": "O"
      },
      {
        "species": [
          {
            "element": "O",
            "occu": 1
          }
        ],
        "abc": [
          0.657745999999999,
          0.164543,
          0.901702999999999
        ],
        "xyz": [
          4.586647176312994,
          1.1084718853499997,
          13.071592543382986
        ],
        "properties": {
          "magmom": 0.036000000000000004
        },
        "label": "O"
      },
      {
        "species": [
          {
            "element": "O",
            "occu": 1
          }
        ],
        "abc": [
          0.52558,
          0.028353999999999,
          0.743892999999999
        ],
        "xyz": [
          3.365660719627997,
          0.35679943701299455,
          10.783890251972986
        ],
        "properties": {
          "magmom": 0.05
        },
        "label": "O"
      },
      {
        "species": [
          {
            "element": "O",
            "occu": 1
          }
        ],
        "abc": [
          0.521936,
          0.451943,
          0.7470019999999991
        ],
        "xyz": [
          4.594948935583,
          2.557331852943,
          10.828960060121986
        ],
        "properties": {
          "magmom": -0.011
        },
        "label": "O"
      },
      {
        "species": [
          {
            "element": "O",
            "occu": 1
          }
        ],
        "abc": [
          0.37982899999999903,
          0.326386,
          0.579283
        ],
        "xyz": [
          3.3441630747599946,
          1.8580789146390002,
          8.397611345763
        ],
        "properties": {
          "magmom": -0.014
        },
        "label": "O"
      },
      {
        "species": [
          {
            "element": "O",
            "occu": 1
          }
        ],
        "abc": [
          0.17111,
          0.163659,
          0.901554
        ],
        "xyz": [
          1.693450347683,
          1.1038393847549999,
          13.069432555794
        ],
        "properties": {
          "magmom": 0.189
        },
        "label": "O"
      },
      {
        "species": [
          {
            "element": "O",
            "occu": 1
          }
        ],
        "abc": [
          0.169953,
          0.669387,
          0.902064
        ],
        "xyz": [
          3.1793929204949998,
          3.730179503709,
          13.076825801903999
        ],
        "properties": {
          "magmom": 0.202
        },
        "label": "O"
      },
      {
        "species": [
          {
            "element": "O",
            "occu": 1
          }
        ],
        "abc": [
          0.009958999999999002,
          0.501738,
          0.768695
        ],
        "xyz": [
          1.7055144117839942,
          2.8220235277790002,
          11.143433957895
        ],
        "properties": {
          "magmom": 0.03
        },
        "label": "O"
      },
      {
        "species": [
          {
            "element": "O",
            "occu": 1
          }
        ],
        "abc": [
          0.666710999999999,
          0.667665,
          0.900034
        ],
        "xyz": [
          6.124552329136994,
          3.720665459533,
          13.047397783074
        ],
        "properties": {
          "magmom": 0.19
        },
        "label": "O"
      }
    ]
  },
  "formation_energy_per_atom": -1.151238372777776,
  "energy_above_hull": 0.27133775472222305,
  "band_gap": 0.0,
  "is_gap_direct": false,
  "is_metal": true,
  "ordering": "FM",
  "total_magnetization": 48.0040706,
  "bulk_modulus": null,
  "shear_modulus": null
}