{
  "material_id": {
    "parts": [
      "mp",
      1245168
    ],
    "string": "mp-1245168"
  },
  "formula_pretty": "FeO",
  "elements": [
    {
      "@module": "pymatgen.core.periodic_table",
      "@class": "Element",
      "element": "Fe"
    },
    {
      "@module": "pymatgen.core.periodic_table",
      "@class": "Element",
      "element": "O"
    }
  ],
  "nelements": 2,
  "composition": {
    "Fe": 40.0,
    "O": 40.0
  },
  "composition_reduced": {
    "Fe": 1.0,
    "O": 1.0
  },
  "chemsys": "Fe-O",
  "volume": 1149.8913484623527,
  "density": 4.149972363074716,
  "density_atomic": 14.373641855779407,
  "symmetry": {
    "crystal_system": {},
    "symbol": "P1",
    "number": 1,
    "point_group": "1",
    "symprec": 0.1,
    "version": "2.5.0"
  },
  "structure": {
    "@module": "pymatgen.core.structure",
    "@class": "Structure",
    "charge": 0,
    "lattice": {
      "matrix": [
        [
          10.500744,
          0.012093999999999001,
          -0.156171
        ],
        [
          0.017603999999999002,
          11.036254,
          -0.128963
        ],
        [
          -0.156221,
          -0.116272,
          9.926057
        ]
      ],
      "pbc": [
        true,
        true,
        true
      ],
      "a": 10.501912216335318,
      "b": 11.03702150531116,
      "c": 9.927967150735038,
      "alpha": 91.34188558805445,
      "beta": 91.7543868731274,
      "gamma": 89.83269058559176,
      "volume": 1149.8913484623527
    },
    "properties": {},
    "sites": [
      {
        "species": [
          {
            "element": "Fe",
            "occu": 1
          }
        ],
        "abc": [
          0.184538999999999,
          0.629776999999999,
          0.714256999999999
        ],
        "xyz": [
          1.837301448526989,
          6.869562660119989,
          6.979718123228991
        ],
        "properties": {
          "magmom": 3.773
        },
        "label": "Fe"
      },
      {
        "species": [
          {
            "element": "Fe",
            "occu": 1
          }
        ],
        "abc": [
          0.203914999999999,
          0.82362,
          0.039675999999999004
        ],
        "xyz": [
          2.1495599948439885,
          9.087532459618,
          0.2557641220069903
        ],
        "properties": {
          "magmom": 3.735999999999999
        },
        "label": "Fe"
      },
      {
        "species": [
          {
            "element": "Fe",
            "occu": 1
          }
        ],
        "abc": [
          0.771731,
          0.093144999999999,
          0.646901
        ],
        "xyz": [
          8.004329871323,
          0.9620887204719883,
          6.288641938721
        ],
        "properties": {
          "magmom": 3.776
        },
        "label": "Fe"
      },
      {
        "species": [
          {
            "element": "Fe",
            "occu": 1
          }
        ],
        "abc": [
          0.043744,
          0.913234,
          0.786963
        ],
        "xyz": [
          0.3524809700489991,
          9.987709663436,
          7.686834654325
        ],
        "properties": {
          "magmom": 3.797
        },
        "label": "Fe"
      },
      {
        "species": [
          {
            "element": "Fe",
            "occu": 1
          }
        ],
        "abc": [
          0.008350999999999,
          0.906436999999999,
          0.214089
        ],
        "xyz": [
          0.07020343242298857,
          9.978877407783989,
          2.0068585982210005
        ],
        "properties": {
          "magmom": 3.661
        },
        "label": "Fe"
      },
      {
        "species": [
          {
            "element": "Fe",
            "occu": 1
          }
        ],
        "abc": [
          0.011831,
          0.05215,
          0.544551
        ],
        "xyz": [
          0.04008204909299992,
          0.512367696342,
          5.396671185856
        ],
        "properties": {
          "magmom": 3.803
        },
        "label": "Fe"
      },
      {
        "species": [
          {
            "element": "Fe",
            "occu": 1
          }
        ],
        "abc": [
          0.125641,
          0.6223700000000001,
          0.214731999999999
        ],
        "xyz": [
          1.2967345306119995,
          6.84518558513,
          2.03155788880299
        ],
        "properties": {
          "magmom": 3.651
        },
        "label": "Fe"
      },
      {
        "species": [
          {
            "element": "Fe",
            "occu": 1
          }
        ],
        "abc": [
          0.78576,
          0.907335,
          0.41165
        ],
        "xyz": [
          8.202728956129999,
          9.975219135729999,
          3.8463357954850004
        ],
        "properties": {
          "magmom": 3.792
        },
        "label": "Fe"
      },
      {
        "species": [
          {
            "element": "Fe",
            "occu": 1
          }
        ],
        "abc": [
          0.219935,
          0.400364,
          0.099860999999999
        ],
        "xyz": [
          2.300928754214999,
          4.409567652153999,
          0.9052463666599901
        ],
        "properties": {
          "magmom": 4.306
        },
        "label": "Fe"
      },
      {
        "species": [
          {
            "element": "Fe",
            "occu": 1
          }
        ],
        "abc": [
          0.320324999999999,
          0.391868,
          0.686578999999999
        ],
        "xyz": [
          3.2632912081129897,
          4.248798879533999,
          6.714460340543991
        ],
        "properties": {
          "magmom": 3.67
        },
        "label": "Fe"
      },
      {
        "species": [
          {
            "element": "Fe",
            "occu": 1
          }
        ],
        "abc": [
          0.717885999999999,
          0.561379,
          0.949168999999999
        ],
        "xyz": [
          7.399939492750989,
          6.093841569581999,
          9.236995502149991
        ],
        "properties": {
          "magmom": 3.778
        },
        "label": "Fe"
      },
      {
        "species": [
          {
            "element": "Fe",
            "occu": 1
          }
        ],
        "abc": [
          0.534826,
          0.538633,
          0.645326
        ],
        "xyz": [
          5.524739532829999,
          5.875925441754,
          6.2525546207569995
        ],
        "properties": {
          "magmom": 3.771
        },
        "label": "Fe"
      },
      {
        "species": [
          {
            "element": "Fe",
            "occu": 1
          }
        ],
        "abc": [
          0.327924999999999,
          0.909157,
          0.807937
        ],
        "xyz": [
          3.3332445499509884,
          9.943713051963998,
          7.851168725043
        ],
        "properties": {
          "magmom": 3.742
        },
        "label": "Fe"
      },
      {
        "species": [
          {
            "element": "Fe",
            "occu": 1
          }
        ],
        "abc": [
          0.536482,
          0.079765999999999,
          0.429293
        ],
        "xyz": [
          5.567799761519,
          0.8368912941759884,
          4.167116994621
        ],
        "properties": {
          "magmom": 4.25
        },
        "label": "Fe"
      },
      {
        "species": [
          {
            "element": "Fe",
            "occu": 1
          }
        ],
        "abc": [
          0.907455999999999,
          0.265966,
          0.431753999999999
        ],
        "xyz": [
          9.466196171093989,
          2.8960422031399986,
          4.10959672974399
        ],
        "properties": {
          "magmom": 3.747
        },
        "label": "Fe"
      },
      {
        "species": [
          {
            "element": "Fe",
            "occu": 1
          }
        ],
        "abc": [
          0.9516,
          0.34593,
          0.044527
        ],
        "xyz": [
          9.991641689653,
          3.8241027532759992,
          0.24875304584899996
        ],
        "properties": {
          "magmom": 3.766
        },
        "label": "Fe"
      },
      {
        "species": [
          {
            "element": "Fe",
            "occu": 1
          }
        ],
        "abc": [
          0.808458999999999,
          0.387623,
          0.718749
        ],
        "xyz": [
          8.383961021258987,
          4.204113003659999,
          6.958096667255
        ],
        "properties": {
          "magmom": 3.6470000000000002
        },
        "label": "Fe"
      },
      {
        "species": [
          {
            "element": "Fe",
            "occu": 1
          }
        ],
        "abc": [
          0.48921000000000003,
          0.948793,
          0.032438
        ],
        "xyz": [
          5.1487040274139995,
          10.473265416025999,
          0.12322183039700003
        ],
        "properties": {
          "magmom": 3.7
        },
        "label": "Fe"
      },
      {
        "species": [
          {
            "element": "Fe",
            "occu": 1
          }
        ],
        "abc": [
          0.492504999999999,
          0.182202,
          0.773752
        ],
        "xyz": [
          5.054000096535989,
          1.9268182142339996,
          7.579894140983
        ],
        "properties": {
          "magmom": 3.793
        },
        "label": "Fe"
      },
      {
        "species": [
          {
            "element": "Fe",
            "occu": 1
          }
        ],
        "abc": [
          0.377654999999999,
          0.590492999999999,
          0.352921
        ],
        "xyz": [
          3.920919842550989,
          6.4803632622799885,
          3.3679834547330003
        ],
        "properties": {
          "magmom": 3.792
        },
        "label": "Fe"
      },
      {
        "species": [
          {
            "element": "Fe",
            "occu": 1
          }
        ],
        "abc": [
          0.709336,
          0.793397999999999,
          0.131537
        ],
        "xyz": [
          7.441973882698998,
          8.749426490611988,
          1.092547060879
        ],
        "properties": {
          "magmom": 3.785
        },
        "label": "Fe"
      },
      {
        "species": [
          {
            "element": "Fe",
            "occu": 1
          }
        ],
        "abc": [
          0.503093,
          0.836978,
          0.5687800000000001
        ],
        "xyz": [
          5.208729581523999,
          9.177053018993998,
          5.459234969743001
        ],
        "properties": {
          "magmom": 4.301
        },
        "label": "Fe"
      },
      {
        "species": [
          {
            "element": "Fe",
            "occu": 1
          }
        ],
        "abc": [
          0.755361,
          0.829379,
          0.799883
        ],
        "xyz": [
          7.821494354356998,
          9.069368646024,
          7.714759564623
        ],
        "properties": {
          "magmom": 3.778
        },
        "label": "Fe"
      },
      {
        "species": [
          {
            "element": "Fe",
            "occu": 1
          }
        ],
        "abc": [
          0.074859,
          0.285731,
          0.756737
        ],
        "xyz": [
          0.6728869927429996,
          3.066317911956,
          7.462875064167
        ],
        "properties": {
          "magmom": 3.782
        },
        "label": "Fe"
      },
      {
        "species": [
          {
            "element": "Fe",
            "occu": 1
          }
        ],
        "abc": [
          0.963712999999999,
          0.496556999999999,
          0.525259
        ],
        "xyz": [
          10.046388405660988,
          5.430711408051988,
          4.9992092704490005
        ],
        "properties": {
          "magmom": 3.5620000000000003
        },
        "label": "Fe"
      },
      {
        "species": [
          {
            "element": "Fe",
            "occu": 1
          }
        ],
        "abc": [
          0.979306,
          0.744406999999999,
          0.446432999999999
        ],
        "xyz": [
          10.226803934798998,
          8.175400800365987,
          4.182379247413991
        ],
        "properties": {
          "magmom": 3.718
        },
        "label": "Fe"
      },
      {
        "species": [
          {
            "element": "Fe",
            "occu": 1
          }
        ],
        "abc": [
          0.758012999999999,
          0.651048,
          0.595152999999999
        ],
        "xyz": [
          7.8781861138509885,
          7.125098873797999,
          5.70518185027399
        ],
        "properties": {
          "magmom": 3.623
        },
        "label": "Fe"
      },
      {
        "species": [
          {
            "element": "Fe",
            "occu": 1
          }
        ],
        "abc": [
          0.24109000000000003,
          0.146063,
          0.945483
        ],
        "xyz": [
          2.3864913642689998,
          1.5049709110859997,
          9.328430161472
        ],
        "properties": {
          "magmom": 3.784
        },
        "label": "Fe"
      },
      {
        "species": [
          {
            "element": "Fe",
            "occu": 1
          }
        ],
        "abc": [
          0.447586999999999,
          0.664554,
          0.07939399999999901
        ],
        "xyz": [
          4.6992923032699885,
          7.330368558726,
          0.6324663825789903
        ],
        "properties": {
          "magmom": 3.7800000000000002
        },
        "label": "Fe"
      },
      {
        "species": [
          {
            "element": "Fe",
            "occu": 1
          }
        ],
        "abc": [
          0.774737999999999,
          0.112832,
          0.244473
        ],
        "xyz": [
          8.09911988306699,
          1.2261869280439992,
          2.2911101715470004
        ],
        "properties": {
          "magmom": 3.781
        },
        "label": "Fe"
      },
      {
        "species": [
          {
            "element": "Fe",
            "occu": 1
          }
        ],
        "abc": [
          0.986575,
          0.673505999999999,
          0.984602
        ],
        "xyz": [
          10.217812402381998,
          7.330433280829988,
          9.532283815711
        ],
        "properties": {
          "magmom": 3.677
        },
        "label": "Fe"
      },
      {
        "species": [
          {
            "element": "Fe",
            "occu": 1
          }
        ],
        "abc": [
          0.482303,
          0.334078999999999,
          0.462962999999999
        ],
        "xyz": [
          4.998096917324999,
          3.6389840386119885,
          4.47699155500099
        ],
        "properties": {
          "magmom": 3.568
        },
        "label": "Fe"
      },
      {
        "species": [
          {
            "element": "Fe",
            "occu": 1
          }
        ],
        "abc": [
          0.713658999999999,
          0.237406999999999,
          0.965160999999999
        ],
        "xyz": [
          7.34735135854299,
          2.5164937455319887,
          9.438173541546991
        ],
        "properties": {
          "magmom": 4.279
        },
        "label": "Fe"
      },
      {
        "species": [
          {
            "element": "Fe",
            "occu": 1
          }
        ],
        "abc": [
          0.186057,
          0.371278,
          0.446428
        ],
        "xyz": [
          1.8905314757319993,
          4.047861409554,
          4.354331941935
        ],
        "properties": {
          "magmom": 3.638
        },
        "label": "Fe"
      },
      {
        "species": [
          {
            "element": "Fe",
            "occu": 1
          }
        ],
        "abc": [
          0.474668,
          0.409802,
          0.935708
        ],
        "xyz": [
          4.845404067931999,
          4.419622955923999,
          9.160912271802
        ],
        "properties": {
          "magmom": 3.7560000000000002
        },
        "label": "Fe"
      },
      {
        "species": [
          {
            "element": "Fe",
            "occu": 1
          }
        ],
        "abc": [
          0.701724,
          0.542373,
          0.317515999999999
        ],
        "xyz": [
          7.328569349912,
          5.957334620445999,
          2.9721469264089904
        ],
        "properties": {
          "magmom": 3.795
        },
        "label": "Fe"
      },
      {
        "species": [
          {
            "element": "Fe",
            "occu": 1
          }
        ],
        "abc": [
          0.203263,
          0.115924,
          0.281244
        ],
        "xyz": [
          2.0925172348439998,
          1.2491241690499997,
          2.744950282123
        ],
        "properties": {
          "magmom": 3.779
        },
        "label": "Fe"
      },
      {
        "species": [
          {
            "element": "Fe",
            "occu": 1
          }
        ],
        "abc": [
          0.369747999999999,
          0.871153,
          0.282585
        ],
        "xyz": [
          3.8538191586389883,
          9.585880790053999,
          2.6348643980979998
        ],
        "properties": {
          "magmom": 3.803
        },
        "label": "Fe"
      },
      {
        "species": [
          {
            "element": "Fe",
            "occu": 1
          }
        ],
        "abc": [
          0.463574999999999,
          0.195417999999999,
          0.180992
        ],
        "xyz": [
          4.843047787039989,
          2.1412448583979886,
          1.6989382456850002
        ],
        "properties": {
          "magmom": 3.8040000000000003
        },
        "label": "Fe"
      },
      {
        "species": [
          {
            "element": "Fe",
            "occu": 1
          }
        ],
        "abc": [
          0.274102,
          0.094972,
          0.606155999999999
        ],
        "xyz": [
          2.7852525225,
          0.9809711340439997,
          5.96168434941399
        ],
        "properties": {
          "magmom": 3.7960000000000003
        },
        "label": "Fe"
      },
      {
        "species": [
          {
            "element": "O",
            "occu": 1
          }
        ],
        "abc": [
          0.122537,
          0.416091,
          0.627524
        ],
        "xyz": [
          1.1960221066879992,
          4.520604455063999,
          6.156041923408
        ],
        "properties": {
          "magmom": 0.108
        },
        "label": "O"
      },
      {
        "species": [
          {
            "element": "O",
            "occu": 1
          }
        ],
        "abc": [
          0.518381,
          0.370127999999999,
          0.753888
        ],
        "xyz": [
          5.332128771527999,
          4.003439854789988,
          7.354446363201
        ],
        "properties": {
          "magmom": 0.14200000000000002
        },
        "label": "O"
      },
      {
        "species": [
          {
            "element": "O",
            "occu": 1
          }
        ],
        "abc": [
          0.075196,
          0.639512,
          0.549115999999999
        ],
        "xyz": [
          0.7150884644359994,
          6.994879472919999,
          5.356339895039991
        ],
        "properties": {
          "magmom": 0.131
        },
        "label": "O"
      },
      {
        "species": [
          {
            "element": "O",
            "occu": 1
          }
        ],
        "abc": [
          0.792153999999999,
          0.705747,
          0.414332
        ],
        "xyz": [
          8.265902973391988,
          7.750208251909999,
          3.897956316229
        ],
        "properties": {
          "magmom": 0.11900000000000001
        },
        "label": "O"
      },
      {
        "species": [
          {
            "element": "O",
            "occu": 1
          }
        ],
        "abc": [
          0.548516999999999,
          0.868711999999999,
          0.189531
        ],
        "xyz": [
          5.745520680344989,
          9.571922901013988,
          1.6836013552040003
        ],
        "properties": {
          "magmom": 0.134
        },
        "label": "O"
      },
      {
        "species": [
          {
            "element": "O",
            "occu": 1
          }
        ],
        "abc": [
          0.423261,
          0.06283000000000001,
          0.905574999999999
        ],
        "xyz": [
          4.304191633428999,
          0.5932337409539998,
          8.91458522885399
        ],
        "properties": {
          "magmom": 0.115
        },
        "label": "O"
      },
      {
        "species": [
          {
            "element": "O",
            "occu": 1
          }
        ],
        "abc": [
          0.997922,
          0.912185999999999,
          0.422191999999999
        ],
        "xyz": [
          10.429026319879998,
          10.030096151687989,
          3.9172171371639903
        ],
        "properties": {
          "magmom": 0.17
        },
        "label": "O"
      },
      {
        "species": [
          {
            "element": "O",
            "occu": 1
          }
        ],
        "abc": [
          0.614557,
          0.755092,
          0.690811
        ],
        "xyz": [
          6.358679184744999,
          8.260497581133999,
          6.663674451384
        ],
        "properties": {
          "magmom": 0.228
        },
        "label": "O"
      },
      {
        "species": [
          {
            "element": "O",
            "occu": 1
          }
        ],
        "abc": [
          0.637676999999999,
          0.6117800000000001,
          0.12975899999999901
        ],
        "xyz": [
          6.686581626068989,
          6.744384199310001,
          1.1095115913559903
        ],
        "properties": {
          "magmom": 0.094
        },
        "label": "O"
      },
      {
        "species": [
          {
            "element": "O",
            "occu": 1
          }
        ],
        "abc": [
          0.827449,
          0.098995,
          0.449901999999999
        ],
        "xyz": [
          8.620288689693998,
          1.0502301275919992,
          4.323762666449991
        ],
        "properties": {
          "magmom": 0.147
        },
        "label": "O"
      },
      {
        "species": [
          {
            "element": "O",
            "occu": 1
          }
        ],
        "abc": [
          0.535961999999999,
          0.49747399999999903,
          0.431135999999999
        ],
        "xyz": [
          5.569404790967989,
          5.446602301831989,
          4.131623049787991
        ],
        "properties": {
          "magmom": 0.084
        },
        "label": "O"
      },
      {
        "species": [
          {
            "element": "O",
            "occu": 1
          }
        ],
        "abc": [
          0.874255,
          0.931956,
          0.704847
        ],
        "xyz": [
          9.086622195956998,
          10.213922402409999,
          6.739630379046
        ],
        "properties": {
          "magmom": 0.138
        },
        "label": "O"
      },
      {
        "species": [
          {
            "element": "O",
            "occu": 1
          }
        ],
        "abc": [
          0.098541999999999,
          0.195771,
          0.42538000000000004
        ],
        "xyz": [
          0.9717573789519893,
          2.1123104654219995,
          4.1817095085050004
        ],
        "properties": {
          "magmom": 0.121
        },
        "label": "O"
      },
      {
        "species": [
          {
            "element": "O",
            "occu": 1
          }
        ],
        "abc": [
          0.388049,
          0.802952,
          0.960418
        ],
        "xyz": [
          3.9389009150859984,
          8.754605564718,
          9.369010712671
        ],
        "properties": {
          "magmom": 0.17500000000000002
        },
        "label": "O"
      },
      {
        "species": [
          {
            "element": "O",
            "occu": 1
          }
        ],
        "abc": [
          0.36308,
          0.93732,
          0.620288
        ],
        "xyz": [
          3.732208701151999,
          10.276770562464,
          5.9794318785759994
        ],
        "properties": {
          "magmom": 0.186
        },
        "label": "O"
      },
      {
        "species": [
          {
            "element": "O",
            "occu": 1
          }
        ],
        "abc": [
          0.231844,
          0.46780000000000005,
          0.293188
        ],
        "xyz": [
          2.3969675205879994,
          5.1314739874,
          2.813664598992
        ],
        "properties": {
          "magmom": 0.145
        },
        "label": "O"
      },
      {
        "species": [
          {
            "element": "O",
            "occu": 1
          }
        ],
        "abc": [
          0.841105999999999,
          0.429539,
          0.394901
        ],
        "xyz": [
          8.778108558298989,
          4.704757913797999,
          3.733058832174
        ],
        "properties": {
          "magmom": 0.115
        },
        "label": "O"
      },
      {
        "species": [
          {
            "element": "O",
            "occu": 1
          }
        ],
        "abc": [
          0.611916,
          0.195323,
          0.314561
        ],
        "xyz": [
          6.379870697615,
          2.1264601155539995,
          3.0015974422919998
        ],
        "properties": {
          "magmom": 0.241
        },
        "label": "O"
      },
      {
        "species": [
          {
            "element": "O",
            "occu": 1
          }
        ],
        "abc": [
          0.9072,
          0.245717,
          0.657467999999999
        ],
        "xyz": [
          9.42789025044,
          2.646321781621999,
          6.35269811100499
        ],
        "properties": {
          "magmom": 0.11900000000000001
        },
        "label": "O"
      },
      {
        "species": [
          {
            "element": "O",
            "occu": 1
          }
        ],
        "abc": [
          0.683365,
          0.140984,
          0.809222999999999
        ],
        "xyz": [
          7.051905179613,
          1.4701098735899993,
          7.907490108703991
        ],
        "properties": {
          "magmom": 0.20600000000000002
        },
        "label": "O"
      },
      {
        "species": [
          {
            "element": "O",
            "occu": 1
          }
        ],
        "abc": [
          0.807323,
          0.7330700000000001,
          0.961529
        ],
        "xyz": [
          8.340186090682998,
          7.988311584254,
          9.323572314509999
        ],
        "properties": {
          "magmom": 0.112
        },
        "label": "O"
      },
      {
        "species": [
          {
            "element": "O",
            "occu": 1
          }
        ],
        "abc": [
          0.18738000000000002,
          0.940396999999999,
          0.205213999999999
        ],
        "xyz": [
          1.9521254232139993,
          10.356865684349989,
          1.8864261209069904
        ],
        "properties": {
          "magmom": 0.097
        },
        "label": "O"
      },
      {
        "species": [
          {
            "element": "O",
            "occu": 1
          }
        ],
        "abc": [
          0.845673,
          0.201142,
          0.095655999999999
        ],
        "xyz": [
          8.868793108503999,
          2.218959656897999,
          0.7914774345629901
        ],
        "properties": {
          "magmom": 0.20800000000000002
        },
        "label": "O"
      },
      {
        "species": [
          {
            "element": "O",
            "occu": 1
          }
        ],
        "abc": [
          0.279724,
          0.233296999999999,
          0.142473
        ],
        "xyz": [
          2.9191598005109993,
          2.561542310837989,
          1.340423661146
        ],
        "properties": {
          "magmom": 0.19
        },
        "label": "O"
      },
      {
        "species": [
          {
            "element": "O",
            "occu": 1
          }
        ],
        "abc": [
          0.354724999999999,
          0.496961999999999,
          0.039192
        ],
        "xyz": [
          3.7275023210159888,
          5.4843319722739885,
          0.26953455756300027
        ],
        "properties": {
          "magmom": 0.228
        },
        "label": "O"
      },
      {
        "species": [
          {
            "element": "O",
            "occu": 1
          }
        ],
        "abc": [
          0.630585,
          0.954665,
          0.517535
        ],
        "xyz": [
          6.557567742664998,
          10.483376890379999,
          4.915486357064999
        ],
        "properties": {
          "magmom": 0.227
        },
        "label": "O"
      },
      {
        "species": [
          {
            "element": "O",
            "occu": 1
          }
        ],
        "abc": [
          0.437314999999999,
          0.747641,
          0.424411999999999
        ],
        "xyz": [
          4.538992267471989,
          8.20709763236,
          4.04802375633599
        ],
        "properties": {
          "magmom": 0.241
        },
        "label": "O"
      },
      {
        "species": [
          {
            "element": "O",
            "occu": 1
          }
        ],
        "abc": [
          0.457607999999999,
          0.184327,
          0.558456
        ],
        "xyz": [
          4.721226798083989,
          1.9748811061779992,
          5.448029626123
        ],
        "properties": {
          "magmom": 0.186
        },
        "label": "O"
      },
      {
        "species": [
          {
            "element": "O",
            "occu": 1
          }
        ],
        "abc": [
          0.392785999999999,
          0.057617999999999,
          0.311046
        ],
        "xyz": [
          4.07696762288999,
          0.6044712963439887,
          3.0186879530820003
        ],
        "properties": {
          "magmom": 0.228
        },
        "label": "O"
      },
      {
        "species": [
          {
            "element": "O",
            "occu": 1
          }
        ],
        "abc": [
          0.822889,
          0.929284,
          0.206668
        ],
        "xyz": [
          8.625019963323998,
          10.241736580005998,
          1.803043697565
        ],
        "properties": {
          "magmom": 0.111
        },
        "label": "O"
      },
      {
        "species": [
          {
            "element": "O",
            "occu": 1
          }
        ],
        "abc": [
          0.115523,
          0.299884,
          0.958418999999999
        ],
        "xyz": [
          1.0686314324489998,
          3.19955583573,
          9.45660634115799
        ],
        "properties": {
          "magmom": 0.166
        },
        "label": "O"
      },
      {
        "species": [
          {
            "element": "O",
            "occu": 1
          }
        ],
        "abc": [
          0.354973,
          0.567805,
          0.701032
        ],
        "xyz": [
          3.627960319059999,
          6.189222853227999,
          6.829821266226
        ],
        "properties": {
          "magmom": 0.122
        },
        "label": "O"
      },
      {
        "species": [
          {
            "element": "O",
            "occu": 1
          }
        ],
        "abc": [
          0.109896,
          0.736958,
          0.857081
        ],
        "xyz": [
          1.033069120354999,
          8.034930235524,
          8.395231976847
        ],
        "properties": {
          "magmom": 0.115
        },
        "label": "O"
      },
      {
        "species": [
          {
            "element": "O",
            "occu": 1
          }
        ],
        "abc": [
          0.721387,
          0.543635,
          0.740186999999999
        ],
        "xyz": [
          7.469037609140999,
          5.922355374803999,
          7.16436982297699
        ],
        "properties": {
          "magmom": 0.079
        },
        "label": "O"
      },
      {
        "species": [
          {
            "element": "O",
            "occu": 1
          }
        ],
        "abc": [
          0.266293,
          0.22464699999999901,
          0.745383
        ],
        "xyz": [
          2.6837848301369998,
          2.3958147277039887,
          7.328155749667
        ],
        "properties": {
          "magmom": 0.14200000000000002
        },
        "label": "O"
      },
      {
        "species": [
          {
            "element": "O",
            "occu": 1
          }
        ],
        "abc": [
          0.170395,
          0.977907,
          0.910345
        ],
        "xyz": [
          1.6642743424629989,
          10.688643163667999,
          8.883411781679
        ],
        "properties": {
          "magmom": 0.154
        },
        "label": "O"
      },
      {
        "species": [
          {
            "element": "O",
            "occu": 1
          }
        ],
        "abc": [
          0.552817999999999,
          0.277122,
          0.035840000000000004
        ],
        "xyz": [
          5.804279791639989,
          3.060907373399999,
          0.23367725851600019
        ],
        "properties": {
          "magmom": 0.245
        },
        "label": "O"
      },
      {
        "species": [
          {
            "element": "O",
            "occu": 1
          }
        ],
        "abc": [
          0.041982,
          0.511389,
          0.085184
        ],
        "xyz": [
          0.4365371968999994,
          5.634422113065999,
          0.773034608959
        ],
        "properties": {
          "magmom": 0.112
        },
        "label": "O"
      },
      {
        "species": [
          {
            "element": "O",
            "occu": 1
          }
        ],
        "abc": [
          0.7927400000000001,
          0.392549,
          0.932762
        ],
        "xyz": [
          8.185553218753999,
          4.233403765741999,
          9.084221484207
        ],
        "properties": {
          "magmom": 0.20800000000000002
        },
        "label": "O"
      },
      {
        "species": [
          {
            "element": "O",
            "occu": 1
          }
        ],
        "abc": [
          0.287734,
          0.705233,
          0.203440999999999
        ],
        "xyz": [
          3.0020542393669993,
          7.7629558802259995,
          1.8834822922439902
        ],
        "properties": {
          "magmom": 0.127
        },
        "label": "O"
      }
    ]
  },
  "formation_energy_per_atom": -1.17582466675,
  "energy_above_hull": 0.30569472074999904,
  "band_gap": 0.0541,
  "is_gap_direct": false,
  "is_metal": false,
  "ordering": "FM",
  "total_magnetization": 161.9992344,
  "bulk_modulus": null,
  "shear_modulus": null
}