{
  "material_id": {
    "parts": [
      "mp",
      1355579
    ],
    "string": "mp-1355579"
  },
  "formula_pretty": "FeO2",
  "elements": [
    {
      "@module": "pymatgen.core.periodic_table",
      "@class": "Element",
      "element": "Fe"
    },
    {
      "@module": "pymatgen.core.periodic_table",
      "@class": "Element",
      "element": "O"
    }
  ],
  "nelements": 2,
  "composition": {
    "Fe": 12.0,
    "O": 24.0
  },
  "composition_reduced": {
    "Fe": 1.0,
    "O": 2.0
  },
  "chemsys": "Fe-O",
  "volume": 441.8330269987544,
  "density": 3.961715473814272,
  "density_atomic": 12.273139638854289,
  "symmetry": {
    "crystal_system": {},
    "symbol": "P3m1",
    "number": 156,
    "point_group": "3m",
    "symprec": 0.1,
    "version": "2.5.0"
  },
  "structure": {
    "@module": "pymatgen.core.structure",
    "@class": "Structure",
    "charge": 0,
    "lattice": {
      "matrix": [
        [
          2.979946,
          -5.161418,
          0.0
        ],
        [
          2.979946,
          5.161418,
          0.0
        ],
        [
          0.0,
          0.0,
          14.363185
        ]
      ],
      "pbc": [
        true,
        true,
        true
      ],
      "a": 5.95989210755027,
      "b": 5.95989210755027,
      "c": 14.363185,
      "alpha": 90.0,
      "beta": 90.0,
      "gamma": 120.00000119389219,
      "volume": 441.8330269987544
    },
    "properties": {},
    "sites": [
      {
        "species": [
          {
            "element": "Fe",
            "occu": 1
          }
        ],
        "abc": [
          0.990638999999999,
          0.49531899999999907,
          0.167437
        ],
        "xyz": [
          4.428074598267995,
          -2.55655356376,
          2.404928606845
        ],
        "properties": {
          "magmom": 3.847
        },
        "label": "Fe"
      },
      {
        "species": [
          {
            "element": "Fe",
            "occu": 1
          }
        ],
        "abc": [
          0.504680999999999,
          0.009361,
          0.167437
        ],
        "xyz": [
          1.531817401731997,
          -2.556553563759995,
          2.404928606845
        ],
        "properties": {
          "magmom": 3.847
        },
        "label": "Fe"
      },
      {
        "species": [
          {
            "element": "Fe",
            "occu": 1
          }
        ],
        "abc": [
          0.656461,
          0.82823,
          0.499339
        ],
        "xyz": [
          4.424299006686,
          0.8865716084420004,
          7.172098434714999
        ],
        "properties": {
          "magmom": 3.808
        },
        "label": "Fe"
      },
      {
        "species": [
          {
            "element": "Fe",
            "occu": 1
          }
        ],
        "abc": [
          0.504680999999999,
          0.49531899999999907,
          0.167437
        ],
        "xyz": [
          2.979945999999994,
          -0.0483211953160001,
          2.404928606845
        ],
        "properties": {
          "magmom": 3.846
        },
        "label": "Fe"
      },
      {
        "species": [
          {
            "element": "Fe",
            "occu": 1
          }
        ],
        "abc": [
          0.17177,
          0.343539,
          0.499339
        ],
        "xyz": [
          1.535592993314,
          0.8865716084419999,
          7.172098434714999
        ],
        "properties": {
          "magmom": 3.807
        },
        "label": "Fe"
      },
      {
        "species": [
          {
            "element": "Fe",
            "occu": 1
          }
        ],
        "abc": [
          0.0,
          0.0,
          0.666226
        ],
        "xyz": [
          0.0,
          0.0,
          9.56912728981
        ],
        "properties": {
          "magmom": 3.464
        },
        "label": "Fe"
      },
      {
        "species": [
          {
            "element": "Fe",
            "occu": 1
          }
        ],
        "abc": [
          0.0,
          0.0,
          0.282252
        ],
        "xyz": [
          0.0,
          0.0,
          4.05403769262
        ],
        "properties": {
          "magmom": 4.3
        },
        "label": "Fe"
      },
      {
        "species": [
          {
            "element": "Fe",
            "occu": 1
          }
        ],
        "abc": [
          0.335242999999999,
          0.167622,
          0.834541
        ],
        "xyz": [
          1.498510545289997,
          -0.865162046577995,
          11.986666773085
        ],
        "properties": {
          "magmom": 4.164
        },
        "label": "Fe"
      },
      {
        "species": [
          {
            "element": "Fe",
            "occu": 1
          }
        ],
        "abc": [
          0.17177,
          0.82823,
          0.499339
        ],
        "xyz": [
          2.979946,
          3.3882644602800003,
          7.172098434714999
        ],
        "properties": {
          "magmom": 3.807
        },
        "label": "Fe"
      },
      {
        "species": [
          {
            "element": "Fe",
            "occu": 1
          }
        ],
        "abc": [
          0.832378,
          0.664756999999999,
          0.834541
        ],
        "xyz": [
          4.461381454709997,
          -0.8651620465780046,
          11.986666773085
        ],
        "properties": {
          "magmom": 4.164
        },
        "label": "Fe"
      },
      {
        "species": [
          {
            "element": "Fe",
            "occu": 1
          }
        ],
        "abc": [
          0.832378,
          0.167622,
          0.834541
        ],
        "xyz": [
          2.979946,
          -3.431083584008,
          11.986666773085
        ],
        "properties": {
          "magmom": 4.164
        },
        "label": "Fe"
      },
      {
        "species": [
          {
            "element": "Fe",
            "occu": 1
          }
        ],
        "abc": [
          0.333333,
          0.666667,
          0.955225
        ],
        "xyz": [
          2.979946,
          1.7204761076120003,
          13.720073391625
        ],
        "properties": {
          "magmom": 4.29
        },
        "label": "Fe"
      },
      {
        "species": [
          {
            "element": "O",
            "occu": 1
          }
        ],
        "abc": [
          0.368278,
          0.184139,
          0.099857
        ],
        "xyz": [
          1.646172829482,
          -0.9504183491020001,
          1.434264564545
        ],
        "properties": {
          "magmom": -0.15
        },
        "label": "O"
      },
      {
        "species": [
          {
            "element": "O",
            "occu": 1
          }
        ],
        "abc": [
          0.666667,
          0.333333,
          0.244737999999999
        ],
        "xyz": [
          2.979946,
          -1.720476107612,
          3.5152171705299855
        ],
        "properties": {
          "magmom": 0.066
        },
        "label": "O"
      },
      {
        "species": [
          {
            "element": "O",
            "occu": 1
          }
        ],
        "abc": [
          0.815861,
          0.631722,
          0.099857
        ],
        "xyz": [
          4.313719170518,
          -0.9504183491019994,
          1.434264564545
        ],
        "properties": {
          "magmom": -0.15
        },
        "label": "O"
      },
      {
        "species": [
          {
            "element": "O",
            "occu": 1
          }
        ],
        "abc": [
          0.815861,
          0.184139,
          0.099857
        ],
        "xyz": [
          2.979946,
          -3.2605813017959995,
          1.434264564545
        ],
        "properties": {
          "magmom": -0.15
        },
        "label": "O"
      },
      {
        "species": [
          {
            "element": "O",
            "occu": 1
          }
        ],
        "abc": [
          0.025740000000000002,
          0.51287,
          0.437561
        ],
        "xyz": [
          1.6050287150600002,
          2.5142815503400002,
          6.2847695917849995
        ],
        "properties": {
          "magmom": -0.111
        },
        "label": "O"
      },
      {
        "species": [
          {
            "element": "O",
            "occu": 1
          }
        ],
        "abc": [
          0.174744999999999,
          0.825255,
          0.237222
        ],
        "xyz": [
          2.979945999999997,
          3.357554023180005,
          3.40726347207
        ],
        "properties": {
          "magmom": 0.095
        },
        "label": "O"
      },
      {
        "species": [
          {
            "element": "O",
            "occu": 1
          }
        ],
        "abc": [
          0.333333,
          0.666667,
          0.576674999999999
        ],
        "xyz": [
          2.979946,
          1.7204761076120003,
          8.282889709874986
        ],
        "properties": {
          "magmom": -0.057
        },
        "label": "O"
      },
      {
        "species": [
          {
            "element": "O",
            "occu": 1
          }
        ],
        "abc": [
          0.174744999999999,
          0.34949,
          0.237222
        ],
        "xyz": [
          1.562191991309997,
          0.9019319884100052,
          3.40726347207
        ],
        "properties": {
          "magmom": 0.095
        },
        "label": "O"
      },
      {
        "species": [
          {
            "element": "O",
            "occu": 1
          }
        ],
        "abc": [
          0.333333,
          0.666667,
          0.089733
        ],
        "xyz": [
          2.979946,
          1.7204761076120003,
          1.2888516796049998
        ],
        "properties": {
          "magmom": 0.156
        },
        "label": "O"
      },
      {
        "species": [
          {
            "element": "O",
            "occu": 1
          }
        ],
        "abc": [
          0.48713000000000006,
          0.9742600000000001,
          0.437561
        ],
        "xyz": [
          4.35486328494,
          2.5142815503400002,
          6.2847695917849995
        ],
        "properties": {
          "magmom": -0.111
        },
        "label": "O"
      },
      {
        "species": [
          {
            "element": "O",
            "occu": 1
          }
        ],
        "abc": [
          0.48713000000000006,
          0.51287,
          0.437561
        ],
        "xyz": [
          2.9799460000000004,
          0.13285489931999972,
          6.2847695917849995
        ],
        "properties": {
          "magmom": -0.111
        },
        "label": "O"
      },
      {
        "species": [
          {
            "element": "O",
            "occu": 1
          }
        ],
        "abc": [
          0.65051,
          0.825255,
          0.237222
        ],
        "xyz": [
          4.39770000869,
          0.9019319884099996,
          3.40726347207
        ],
        "properties": {
          "magmom": 0.095
        },
        "label": "O"
      },
      {
        "species": [
          {
            "element": "O",
            "occu": 1
          }
        ],
        "abc": [
          0.713453,
          0.856727,
          0.746896
        ],
        "xyz": [
          4.67905161028,
          0.739497002532,
          10.72780542376
        ],
        "properties": {
          "magmom": 0.008
        },
        "label": "O"
      },
      {
        "species": [
          {
            "element": "O",
            "occu": 1
          }
        ],
        "abc": [
          0.858255999999999,
          0.141743999999999,
          0.576522
        ],
        "xyz": [
          2.979945999999994,
          -3.6982179340160006,
          8.280692142569999
        ],
        "properties": {
          "magmom": -0.116
        },
        "label": "O"
      },
      {
        "species": [
          {
            "element": "O",
            "occu": 1
          }
        ],
        "abc": [
          0.858255999999999,
          0.716513,
          0.576522
        ],
        "xyz": [
          4.692726582473997,
          -0.7315948715739954,
          8.280692142569999
        ],
        "properties": {
          "magmom": -0.116
        },
        "label": "O"
      },
      {
        "species": [
          {
            "element": "O",
            "occu": 1
          }
        ],
        "abc": [
          0.0,
          0.0,
          0.902729
        ],
        "xyz": [
          0.0,
          0.0,
          12.966063631865
        ],
        "properties": {
          "magmom": 0.004
        },
        "label": "O"
      },
      {
        "species": [
          {
            "element": "O",
            "occu": 1
          }
        ],
        "abc": [
          0.0,
          0.0,
          0.418263
        ],
        "xyz": [
          0.0,
          0.0,
          6.007588847655
        ],
        "properties": {
          "magmom": 0.162
        },
        "label": "O"
      },
      {
        "species": [
          {
            "element": "O",
            "occu": 1
          }
        ],
        "abc": [
          0.143272999999999,
          0.286547,
          0.746896
        ],
        "xyz": [
          1.2808403897199971,
          0.7394970025320051,
          10.72780542376
        ],
        "properties": {
          "magmom": 0.008
        },
        "label": "O"
      },
      {
        "species": [
          {
            "element": "O",
            "occu": 1
          }
        ],
        "abc": [
          0.143272999999999,
          0.856727,
          0.746896
        ],
        "xyz": [
          2.9799459999999973,
          3.6824343177720054,
          10.72780542376
        ],
        "properties": {
          "magmom": 0.008
        },
        "label": "O"
      },
      {
        "species": [
          {
            "element": "O",
            "occu": 1
          }
        ],
        "abc": [
          0.283487,
          0.141743999999999,
          0.576522
        ],
        "xyz": [
          1.267165417525997,
          -0.731594871574005,
          8.280692142569999
        ],
        "properties": {
          "magmom": -0.116
        },
        "label": "O"
      },
      {
        "species": [
          {
            "element": "O",
            "occu": 1
          }
        ],
        "abc": [
          0.500365,
          0.499635,
          0.903270999999999
        ],
        "xyz": [
          2.979946,
          -0.0037678351399998596,
          12.973848478134986
        ],
        "properties": {
          "magmom": 0.197
        },
        "label": "O"
      },
      {
        "species": [
          {
            "element": "O",
            "occu": 1
          }
        ],
        "abc": [
          0.500365,
          0.0007289999999990001,
          0.903270999999999
        ],
        "xyz": [
          1.493233060923997,
          -2.5788302438480053,
          12.973848478134986
        ],
        "properties": {
          "magmom": 0.197
        },
        "label": "O"
      },
      {
        "species": [
          {
            "element": "O",
            "occu": 1
          }
        ],
        "abc": [
          0.666667,
          0.333333,
          0.766945
        ],
        "xyz": [
          2.979946,
          -1.720476107612,
          11.015772919825
        ],
        "properties": {
          "magmom": 0.016
        },
        "label": "O"
      },
      {
        "species": [
          {
            "element": "O",
            "occu": 1
          }
        ],
        "abc": [
          0.9992709999999991,
          0.499635,
          0.903270999999999
        ],
        "xyz": [
          4.466658939075997,
          -2.5788302438479955,
          12.973848478134986
        ],
        "properties": {
          "magmom": 0.197
        },
        "label": "O"
      }
    ]
  },
  "formation_energy_per_atom": -1.142629018333333,
  "energy_above_hull": 0.27994710916666604,
  "band_gap": 0.0,
  "is_gap_direct": false,
  "is_metal": true,
  "ordering": "FM",
  "total_magnetization": 48.0100029,
  "bulk_modulus": null,
  "shear_modulus": null
}